 operating system is UNIX !
 hostname is         dlt16

 force (dlt16) : TURBOMOLE V6.6( 19134 ) 3 Jun 2014 at 14:51:09
 Copyright (C) 2014 TURBOMOLE GmbH, Karlsruhe


    2019-08-23 12:16:27.412 

           Doing BLAS/Lapack in the master proc. with  4 CPUs.
           SMPCPUS    set: Shared-memory Parallelization with   4 CPUs.

           SMP Parallelization Reference:
           C. van Wullen, J. Comput. Chem. 32 (2011) 1195--1201


                             T U R B O M O L E   

                          a o f o r c e - program

                        using direct algorithms for

                       SCF level calculations of
                         * harmonic force constants
                         * hyperpolarizabilities
                         * IR and RAMAN intensities

                       DFT level calculations of
                         * harmonic force constants
                         * IR intensities
                                                   
       Stephan Boecker, Peter Deglmann, Filipp Furche and Marco Haeser
                          Quantum Chemistry Group
                          Universitaet  Karlsruhe
                                   Germany

 
 
 
 
     References :
 
       RI-J implementation:
         Peter Deglmann, Klaus May, Filipp Furche, Reinhart Ahlrichs
                 Chem. Phys. Lett. 384:103 (2004)
 
       Efficiency, technical details:
         Peter Deglmann, Filipp Furche, Reinhart Ahlrichs
                 Chem. Phys. Lett. 362:511 (2002)
 
       Search of lowest eigenvalues by iterative diagonalization:
         Peter Deglmann, Filipp Furche
                 J. Chem. Phys. 117:9535 (2002)
 
 


              +--------------------------------------------------+
              | Atomic coordinate, charge and isotop information |
              +--------------------------------------------------+

                    atomic coordinates            atom    charge  isotop
         -4.91050562  -20.58048589   -4.78537984    h      1.000     0
         -3.18627032  -20.75073008   -3.64048992    c      6.000     0
         -5.00111877  -20.35767759    0.01182252    h      1.000     0
          1.12531991  -16.63033644   -1.45446151    h      1.000     0
         -2.77656196  -22.77143932   -3.37554381    h      1.000     0
        -11.28768864  -15.88061691   -2.22446059    c      6.000     0
         -3.50021856  -19.41407871   -1.07623178    c      6.000     0
         -2.39051159  -14.65214790   -1.30515407    c      6.000     0
         -1.62787606  -19.90980520   -4.72697682    h      1.000     0
          0.41221149  -14.77219441   -0.85837611    c      6.000     0
        -12.13924768  -21.16437350   -2.91031971    h      1.000     0
          0.50758032  -12.44042279    2.55656114    h      1.000     0
        -13.59462886  -17.42499614   -2.34530087    c      6.000     0
         -3.81532195  -12.35747551   -1.70304144    c      6.000     0
        -18.75129728  -18.13749538   -2.21644265    h      1.000     0
          0.31041192   -3.66805938   -6.15411720    h      1.000     0
        -15.44283118  -20.21467603    1.80109117    h      1.000     0
        -19.04915979  -16.52123704   -5.96192216    c      6.000     0
        -13.74302947  -20.23491344   -1.96297245    c      6.000     0
        -13.78983117  -21.02384290    0.83724244    c      6.000     0
          1.15889973  -14.30445013    1.91365694    c      6.000     0
        -18.28511170  -16.34513888   -3.15990453    c      6.000     0
         -8.74948974  -18.93779803   -1.62450613    h      1.000     0
          3.10990692   -4.53716323   -4.49537851    h      1.000     0
          1.37551612  -13.38555502   -2.07360195    h      1.000     0
         -1.76350706  -19.65600341    0.03839640    h      1.000     0
        -13.87621369  -23.09311042    1.02396099    h      1.000     0
          3.22264418  -14.39028230    2.14782328    h      1.000     0
        -15.44498245  -20.96939752   -2.90274682    h      1.000     0
        -21.07959781  -16.92729157   -6.15366704    h      1.000     0
          1.08087108   -4.94139330   -4.70455625    c      6.000     0
        -12.09649687  -20.35129934    1.83446829    h      1.000     0
         -6.57857250  -15.60042763   -1.71117540    c      6.000     0
        -19.45310254  -14.90098799   -2.21970996    h      1.000     0
         -7.74904424  -11.80786115   -2.22325644    h      1.000     0
         -8.86979815  -16.89706617   -1.84247639    c      6.000     0
        -17.77273226  -11.20859823   -3.48304193    h      1.000     0
        -11.81872509  -13.38888470   -2.55032289    n      7.000     0
        -20.00878231   -7.74809957   -0.32489658    h      1.000     0
        -14.36206489  -13.24775314   -2.88232232    c      6.000     0
         -6.30235206  -13.03624104   -1.93071555    n      7.000     0
          0.30443713  -15.73007965    3.16010510    h      1.000     0
         -4.26481842   -7.66096577   -2.22970131    c      6.000     0
          0.87409597   -6.88425010   -5.40932103    h      1.000     0
         -5.42091967    2.73105945   -0.47096641    h      1.000     0
        -18.64326189  -14.74691939   -6.96265600    h      1.000     0
        -19.88119595   -4.39968193   -0.33315357    h      1.000     0
         -3.09547074   -5.14238991   -2.33020756    c      6.000     0
        -20.45218677   -6.05789297   -1.44702578    c      6.000     0
         -6.81215132   -7.51588965   -2.52544169    n      7.000     0
        -15.73822728  -11.01334719   -3.25696364    c      6.000     0
         -7.40328423    0.15330384    0.40495943    h      1.000     0
        -17.99080503  -18.03177762   -6.91822211    h      1.000     0
        -10.88194390   -9.09548160   -2.85113814    h      1.000     0
         -0.03818829   -2.63467993   -1.51763652    h      1.000     0
         -6.24028094    0.05714077   -4.26596443    h      1.000     0
         -4.08749884  -16.64512077   -1.31543102    c      6.000     0
        -12.32927328   -7.86736514   -3.14046655    n      7.000     0
        -14.81616551   -8.54609292   -3.37049009    c      6.000     0
        -15.53240417  -15.76523399   -2.77165081    c      6.000     0
         -7.34816882   -5.01978377   -2.80740758    c      6.000     0
        -22.51137492   -5.97857492   -1.72092637    h      1.000     0
         -4.92219030   -0.64121519   -2.81381976    c      6.000     0
         -5.04159505   -3.47541739   -2.68312055    c      6.000     0
         -0.31500317   -4.58630608   -2.17643884    c      6.000     0
        -12.05420377   -5.30253367   -3.35182508    c      6.000     0
         -9.76587462   -4.00317181   -3.19198248    c      6.000     0
         -0.85425953   -9.69937230   -1.63093253    h      1.000     0
        -16.24297184   -6.25018970   -3.75570357    c      6.000     0
         -9.88754584   -1.96072969   -3.39545092    h      1.000     0
        -19.06949213   -6.11229145   -4.00570081    c      6.000     0
        -14.54507032   -4.25735306   -3.74916940    c      6.000     0
          0.56975642   -5.79271376   -0.72890495    h      1.000     0
         -2.88942990   -9.89386556   -1.84791387    c      6.000     0
        -13.88544762   -0.34338581   -2.95970573    h      1.000     0
         -3.03204688   -0.05994271   -3.45307680    h      1.000     0
        -19.75351920   -7.72829060   -5.12330587    h      1.000     0
        -15.10700488   -1.50592072   -4.17799507    c      6.000     0
         -4.14485577    0.08498557    1.17663560    h      1.000     0
        -17.05275527   -1.09847091   -3.57355532    h      1.000     0
         -5.50942154    0.66227791   -0.27966277    c      6.000     0
        -19.58213616   -4.41942974   -5.09601711    h      1.000     0
        -14.77127410   -0.67884192   -6.94640769    c      6.000     0
        -12.82980906   -1.02542179   -7.59721274    h      1.000     0
        -15.18135535    1.34706031   -7.16769475    h      1.000     0
        -16.04869588   -1.73986508   -8.19488402    h      1.000     0
 
       center of nuclear mass  :   -9.31574284  -10.45181737   -2.53188841
       center of nuclear charge:   -9.31571413  -10.45181762   -2.53166962

              +--------------------------------------------------+
              |               basis set information              |
              +--------------------------------------------------+

              we will work with the 1s 3p 5d 7f 9g ... basis set
              ...i.e. with spherical basis functions...

   type   atoms  prim   cont   basis
   ---------------------------------------------------------------------------
    h       46     10      8   def2-SVPD   [2s2p|4s2p]
    c       36     30     20   def2-SVPD   [4s2p2d|8s4p2d]
    n        4     30     20   def2-SVPD   [4s2p2d|8s4p2d]
   ---------------------------------------------------------------------------
   total:   86   1660   1168
   ---------------------------------------------------------------------------

   total number of primitive shells          :   34
   total number of contracted shells         :  504
   total number of cartesian basis functions : 1248
   total number of SCF-basis functions       : 1168


 symmetry group of the molecule :   c1 

 the group has the following generators :
   c1(z)

    1 symmetry operations found

 there are 1 real representations :   a   

 maximum number of shells which are related by symmetry :  1


 determining totally symmetric integral contributions 
    - equivalent to irreducible tensor elements - 
 which can be formed within each triple of representations :

             representation triple      contributions

              a     a     a               1

    mo occupation :
   irrep   mo's   occupied
    a     1168      145
 
 number of basis functions   :         1168
 number of occupied orbitals :          145
 
  MOs are in ASCII format !


 reading orbital data $scfmo  from file mos . 

 orbital characterization : scfconv=6
 

         --------------------------------------------------------------
                   checking mo's by calculating trace(D*S)

              number of electrons : 
                 from trace(D*S)         :  290.000000005215
                 from occupation numbers :  290.000000000000

              molecular charge           :    0.000000000000
         --------------------------------------------------------------

 time elapsed for calculating density matrices :   0.296 sec

 number of non-frozen orbitals          :  1168
 number of non-frozen occupied orbitals :   145
 Blocking parameters 
 shells:
    index      start shell   last shell  start bf    last bf    #bf 
       1             1         142             1        142    142
       2           143         262           143        282    140
       3           263         309           283        423    141
       4           310         356           424        564    141
       5           357         403           565        705    141
       6           404         437           706        846    141
       7           438         460           847        984    138
       8           461         483           985       1122    138
       9           484         504          1123       1248    126
  
           ------------------
           density functional
           ------------------
 Becke-3-Parameter hybrid functional: B3-LYP
 exchange:    0.8*LDA + 0.72*B88 + 0.2*HF
 correlation: 0.19*LDA(VWN) + 0.81*LYP
 iterations will be done with small grid
  
 spherical integration : Lebedev's spherical grid
 spherical gridsize    :           4
    i.e. gridpoints    :         434
 value for diffuse not defined
 radial integration    : Chebyshev 2nd kind (scaling 3)
 radial gridsize       :           6
 integration cells     :          86
 partition function    : becke
 partition sharpness   :           3
  
 
 Derivatives of quadrature weights will be included
 
          Overall gridpoints after grid construction =        788702
 Ordering of quadrature gridpoints disabled.
 
 
 
 
 OCCUPIED-OCCUPIED TENSOR SPACES :

          IRREP   tensor space dimension   number of roots

           a             21025                 252
 
 OCCUPIED-VIRTUAL TENSOR SPACES :

          IRREP   tensor space dimension   number of roots

           a            148335                 252
 
 
 
 
 CONSTRUCTING integral bounds

 setting up bound for integral derivative estimation

 increment for numerical differentiation : 0.00050000
 
 machine precision:   2.220446049250313E-016

 integral neglect threshold       :  0.10E-09
 integral storage threshold THIZE :  0.10E-04
 integral storage threshold THIME :         5

 
 
 
 PREPARING NUMERICAL INTEGRATION
 
 Remaining core memory for DFT =         370 MB
 
 Memory needed per atom    =       18266 KiB
 
     i. e.          20 atoms per loop

 Calculating ground state density on molecular grid

 Integral of ground state density: N =   290.0000266271179    


 
 
 CONSTRUCTING first deriv. of <mu|x,y,z|nu> -> Dip. deriv.
  dipole integral derivatives will be neglected if
  expon. factor <0.400641E-11
      ...terminated. cpu:       0.80       wall:       0.20
 
 
 
 
 CONSTRUCTING first deriv. of  <mu|nu>
                               <mu|h|nu>    -> RHS
              second deriv. of <mu|nu>      -> Hessian
                               <mu|h|nu>    -> Hessian
                               nucl. rep.   -> Hessian
     integrals are neglected if expon. factor <  4.006410256410256E-013
      ...terminated. cpu:     136.43       wall:      34.16
 
 
 
 
 CONSTRUCTING second deriv. of 2e energy    -> Hessian
   treating Coulomb (and exchange) contribution
     integrals will be neglected if total contribution <  4.006410256410256E-009
      ...terminated. cpu:   28705.07       wall:    7174.27
   treating exchange-correlation contribution
      ...terminated. cpu:    7070.58       wall:    1768.69
 
 
 
 
 CONSTRUCTING S(i,j)xi
      ...terminated. cpu:       2.13       wall:       1.29
 
 
 
 
 CONSTRUCTING <i|x,y,z|j>*S(i,j)xi          -> Dip. deriv.
      ...terminated. cpu:       1.11       wall:       0.36
 
 
 
 
 CONSTRUCTING epsilon(i)*S(i,j)xi*S(i,j)chi -> Hessian
      ...terminated. cpu:       0.29       wall:       0.07
 
 
 
 
 CONSTRUCTING G(a,i)[S(k,l)xi]              -> RHS
              G(i,j)[S(k,l)xi]*S(i,j)chi    -> Hessian
 
         Maximum core memory set to          500 MB
         This corresponds to          41 vectors in CAO basis
      ...terminated. cpu:  253627.55       wall:   63413.27
 
 
 
 
 CONSTRUCTING G(mu,nu)[D(kap,lam)]xi
 
          Maximum core memory set to          500 MB
          Atoms treated simultaneously :          25
      ...terminated. cpu:   47756.02       wall:   11939.05
 
 
 
 
 CONSTRUCTING F(a,i)xi                      -> RHS
              F(i,j)xi*S(i,j)chi            -> Hessian
 
        Maximum core memory set to         500 MB
        This corresponds to          70 vectors in CAO basis
      ...terminated. cpu:     222.12       wall:     105.51
 
 
 
 
 CONSTRUCTING epsilon(i)*S(a,i)xi           -> RHS
      ...terminated. cpu:      10.15       wall:      10.15
 
 
 
 
 SOLVING CPHF equations
 
 Residuum convergence criterium   :  1.000000000000000E-005
 
 Maximum number of Davidson iterations set to          25
  Switching to small grid
        preparing numerical integration ....
          Overall gridpoints after grid construction =        216508

 Calculating ground state density on molecular grid

 Integral of ground state density: N =   289.9997150901067    




                       Block Davidson iteration


 total number of roots to be determined: 252


 maximum core memory set to   500 MB,
 corresponding to       41 vectors in CAO basis


 maximum number of simultaneously treated vectors (including degeneracy): 252


 Recommendation for optimum performance: Increase the maximum amount of
 allocatable core memory (e.g. $rpacor, $maxcor) to     3024 MB or to the
 maximum amount of core memory available on your machine.


 Iteration IRREP Converged      Max. Euclidean
                 roots          residual norm

    1       a        0        3.041736768046061D-01
 
    2       a        0        2.608989843929871D-02
 
    3       a        0        1.829534250184563D-03
 
    4       a       65        1.171902983801562D-04
 
    5       a      252        9.998877570253751D-06
 

 converged!

  Switching to fine grid
        preparing numerical integration ....
          Overall gridpoints after grid construction =        788702

 Calculating ground state density on molecular grid

 Integral of ground state density: N =   290.0000266271198    



 Iteration IRREP Converged      Max. Euclidean
                 roots          residual norm

    6       a        0        2.427151403194397D-04
 

 NOTE: Residual norms are larger than 1.00D-05 due to mgrid option!

      ...terminated. cpu: 1471607.19       wall:  367942.79
 
 
 
 
 CONSTRUCTING <a|x,y,z|i>*U(a,i)xi          -> Dip. deriv.
      ...terminated. cpu:       1.78       wall:       0.56
 
 
 
 
 CONSTRUCTING RHS(a,i)xi*U(a,i)chi          -> Hessian
      ...terminated. cpu:       2.73       wall:       0.68
 
 
 
 

            -----------------------
            permanent dipole moment
            -----------------------

                                   x                y                z
    electronic part       : 2701.5567553991  3031.0275461068   734.1882229816
     nuclear   part       : ***************  ***************  -734.1841905830
     total                :   -0.0003415826     0.0004363392     0.0040323986

 with reference to the point :   0.0000000        0.0000000        0.0000000
 (given in atomic units)
    | dipole |       :    0.0103457384  debye

   ***  dipole moment & cartesian dipole gradients written onto
        $dipole, $dipgrad,  file=<dipgrad>  ***

             -----------------------------------
             rotational and vibrational analysis
             -----------------------------------


            ==============================================================
            ATOMIC WEIGHTS (average over the natural occurance of isotops)
            ==============================================================
            ('*' denotes special isotop !)
              1     h                 1.00797
              2     c                12.01115
              3     h                 1.00797
              4     h                 1.00797
              5     h                 1.00797
              6     c                12.01115
              7     c                12.01115
              8     c                12.01115
              9     h                 1.00797
             10     c                12.01115
             11     h                 1.00797
             12     h                 1.00797
             13     c                12.01115
             14     c                12.01115
             15     h                 1.00797
             16     h                 1.00797
             17     h                 1.00797
             18     c                12.01115
             19     c                12.01115
             20     c                12.01115
             21     c                12.01115
             22     c                12.01115
             23     h                 1.00797
             24     h                 1.00797
             25     h                 1.00797
             26     h                 1.00797
             27     h                 1.00797
             28     h                 1.00797
             29     h                 1.00797
             30     h                 1.00797
             31     c                12.01115
             32     h                 1.00797
             33     c                12.01115
             34     h                 1.00797
             35     h                 1.00797
             36     c                12.01115
             37     h                 1.00797
             38     n                14.00670
             39     h                 1.00797
             40     c                12.01115
             41     n                14.00670
             42     h                 1.00797
             43     c                12.01115
             44     h                 1.00797
             45     h                 1.00797
             46     h                 1.00797
             47     h                 1.00797
             48     c                12.01115
             49     c                12.01115
             50     n                14.00670
             51     c                12.01115
             52     h                 1.00797
             53     h                 1.00797
             54     h                 1.00797
             55     h                 1.00797
             56     h                 1.00797
             57     c                12.01115
             58     n                14.00670
             59     c                12.01115
             60     c                12.01115
             61     c                12.01115
             62     h                 1.00797
             63     c                12.01115
             64     c                12.01115
             65     c                12.01115
             66     c                12.01115
             67     c                12.01115
             68     h                 1.00797
             69     c                12.01115
             70     h                 1.00797
             71     c                12.01115
             72     c                12.01115
             73     h                 1.00797
             74     c                12.01115
             75     h                 1.00797
             76     h                 1.00797
             77     h                 1.00797
             78     c                12.01115
             79     h                 1.00797
             80     h                 1.00797
             81     c                12.01115
             82     h                 1.00797
             83     c                12.01115
             84     h                 1.00797
             85     h                 1.00797
             86     h                 1.00797

          -------------------------------------------------
          CARTESIAN FORCE CONSTANT MATRIX (hartree/bohr**2)
         (translational & rotational space projected out)
          -------------------------------------------------

   ATOM              1 h                           2 c 
                  dx        dy        dz        dx        dy        dz
   1 h     dx  0.2498386
           dy -0.0223433 0.0484814
           dz  0.1306761-0.0113099 0.1345587
   2 c     dx -0.2342086 0.0206542-0.1196820 0.5660742
           dy  0.0193716-0.0488496 0.0127786 0.0050751 0.5450718
           dz -0.1210731 0.0137915-0.1220738 0.0125980-0.0483977 0.4802316
   3 h     dx  0.0007284 0.0003775 0.0001294-0.0016305-0.0007063 0.0014742
           dy -0.0002721 0.0003185 0.0006382 0.0120262 0.0068620-0.0087636
           dz -0.0004543 0.0007641 0.0011298 0.0227172 0.0115187-0.0177788
   4 h     dx  0.0001051 0.0001146 0.0000464-0.0001466-0.0002979 0.0001088
           dy  0.0000000 0.0000042-0.0000065-0.0000951 0.0001504-0.0001609
           dz  0.0000538 0.0000319-0.0001154-0.0002089-0.0000362 0.0002064
   5 h     dx -0.0039003 0.0259411-0.0026718-0.0576232 0.0501609-0.0075688
           dy -0.0001014-0.0011957 0.0000810 0.0500569-0.2942215 0.0369326
           dz -0.0016494 0.0162952-0.0025440-0.0077987 0.0384046-0.0513540
   6 c     dx  0.0000601 0.0000647 0.0002728-0.0003239 0.0002891-0.0007787
           dy -0.0000344 0.0000353 0.0000556 0.0002662 0.0000521 0.0003421
           dz  0.0000519 0.0000803 0.0001129-0.0000358-0.0001534-0.0002073
   7 c     dx  0.0045036-0.0130840-0.0241915-0.0779640 0.0047506 0.0083326
           dy -0.0003771 0.0000839 0.0016083 0.0047509-0.0937879-0.0370005
           dz  0.0033238-0.0087833-0.0170281 0.0098712-0.0436241-0.1622660
   8 c     dx -0.0000574-0.0001820-0.0000295-0.0000343 0.0022219-0.0001135
           dy -0.0000522-0.0004446-0.0004699-0.0017400 0.0006335 0.0022301
           dz  0.0000574 0.0003140 0.0001844-0.0000179-0.0004943-0.0003889
   9 h     dx -0.0186266-0.0112032 0.0139767-0.1978045-0.0829045 0.1020472
           dy  0.0030518 0.0008142-0.0020318-0.0840090-0.0923423 0.0575084
           dz -0.0128624-0.0078123 0.0093147 0.1010668 0.0561208-0.1130228
  10 c     dx -0.0000397-0.0000408 0.0000433 0.0000121 0.0003710-0.0004738
           dy  0.0001600 0.0001124 0.0000075 0.0001124-0.0003280 0.0004054
           dz -0.0000508-0.0000071 0.0001680 0.0002681-0.0005903-0.0000278
  11 h     dx -0.0000206 0.0000115 0.0000067 0.0000094 0.0000140 0.0000175
           dy -0.0000003 0.0000060 0.0000462-0.0000643 0.0000396-0.0000561
           dz  0.0000092-0.0000092 0.0000441 0.0000205 0.0000130-0.0000154
  12 h     dx -0.0000016-0.0000250-0.0000093-0.0000310 0.0000352-0.0000328
           dy -0.0000148-0.0000171-0.0000290-0.0000509 0.0000399-0.0000381
           dz -0.0000334-0.0000119 0.0000281 0.0001090 0.0000674-0.0000772
  13 c     dx -0.0000536 0.0000224-0.0000717 0.0000114-0.0001169 0.0002627
           dy -0.0000128 0.0000378-0.0000119 0.0000190-0.0000544 0.0001013
           dz -0.0000076-0.0000169 0.0000323 0.0000098 0.0000312-0.0000271
  14 c     dx -0.0000088-0.0001623-0.0002130-0.0003483 0.0002542 0.0005652
           dy -0.0000019 0.0002276 0.0002099 0.0007688-0.0004200 0.0000561
           dz -0.0001544-0.0001571-0.0000775 0.0000612 0.0020032-0.0004701
  15 h     dx  0.0000012-0.0000088 0.0000047-0.0000048 0.0000118-0.0000172
           dy  0.0000002-0.0000066-0.0000013 0.0000008 0.0000088-0.0000119
           dz  0.0000002 0.0000030-0.0000025 0.0000016-0.0000005 0.0000033
  16 h     dx  0.0000014-0.0000012-0.0000007-0.0000007 0.0000009-0.0000003
           dy -0.0000037-0.0000004-0.0000004 0.0000014-0.0000017 0.0000035
           dz  0.0000009 0.0000005 0.0000010 0.0000017-0.0000007-0.0000027
  17 h     dx  0.0000045 0.0000050-0.0000176-0.0000113-0.0000200 0.0000131
           dy  0.0000011-0.0000005-0.0000008 0.0000031-0.0000073 0.0000037
           dz  0.0000020-0.0000088 0.0000126-0.0000268 0.0000034-0.0000256
  18 c     dx  0.0000033-0.0000077 0.0000003-0.0000015 0.0000069-0.0000158
           dy -0.0000018 0.0000025-0.0000040 0.0000095-0.0000020 0.0000077
           dz -0.0000030 0.0000019 0.0000007 0.0000004-0.0000030 0.0000174
  19 c     dx  0.0000296-0.0000211 0.0000702-0.0000612 0.0000047-0.0000630
           dy -0.0000130 0.0000396-0.0000554 0.0000369-0.0000413 0.0000569
           dz -0.0000096 0.0000453-0.0000656 0.0000471-0.0000454 0.0000789
  20 c     dx -0.0000081 0.0000149-0.0000227 0.0000506 0.0000313 0.0000204
           dy -0.0000022-0.0000153 0.0000209-0.0000165 0.0000515-0.0000329
           dz  0.0000012-0.0000115 0.0000025 0.0000255 0.0000293-0.0000061
  21 c     dx  0.0000300 0.0000675 0.0000627 0.0001673-0.0003230 0.0003212
           dy -0.0000691-0.0000208 0.0000953 0.0001288 0.0001425-0.0002466
           dz  0.0000066-0.0000343-0.0000784-0.0002505 0.0001464-0.0000970
  22 c     dx -0.0000038 0.0000090 0.0000055-0.0000009-0.0000063 0.0000124
           dy -0.0000016 0.0000035 0.0000013-0.0000037-0.0000045 0.0000152
           dz  0.0000009-0.0000083-0.0000037 0.0000062 0.0000014 0.0000019
  23 h     dx -0.0002006 0.0001117 0.0003222-0.0002302 0.0001979-0.0000094
           dy  0.0001238 0.0000702 0.0000904 0.0000425 0.0001437-0.0000426
           dz  0.0001005-0.0001200-0.0004039 0.0003863 0.0002149 0.0002216
  24 h     dx  0.0000017 0.0000057 0.0000057-0.0000037-0.0000104 0.0000130
           dy  0.0000026 0.0000021 0.0000019-0.0000019-0.0000037 0.0000033
           dz -0.0000001-0.0000006-0.0000023 0.0000004 0.0000024-0.0000037
  25 h     dx -0.0000048 0.0000146 0.0000127 0.0000043-0.0000323 0.0000788
           dy -0.0000348-0.0000352-0.0000535-0.0000191 0.0000459 0.0001137
           dz -0.0000117-0.0000166 0.0000097-0.0000097 0.0000484 0.0000053
  26 h     dx  0.0012747 0.0003866 0.0014472 0.0046334-0.0007114 0.0026841
           dy  0.0006116-0.0008439-0.0030316-0.0129830 0.0012599-0.0087494
           dz  0.0014108-0.0031257-0.0044522-0.0250651 0.0013722-0.0183941
  27 h     dx  0.0000030-0.0000184 0.0000037 0.0000047 0.0000031-0.0000096
           dy  0.0000016-0.0000200-0.0000036 0.0000064 0.0000075-0.0000157
           dz -0.0000021 0.0000146-0.0000091 0.0000008-0.0000098 0.0000178
  28 h     dx  0.0000065 0.0000123 0.0000021 0.0000138-0.0000604 0.0000560
           dy  0.0000085 0.0000005-0.0000069 0.0000088-0.0000077 0.0000314
           dz  0.0000022 0.0000198 0.0000185 0.0000514-0.0001268 0.0001200
  29 h     dx  0.0000099-0.0000091-0.0000289 0.0000069-0.0000159 0.0000111
           dy  0.0000006-0.0000129 0.0000100-0.0000051 0.0000196-0.0000231
           dz -0.0000088-0.0000069 0.0000211-0.0000194-0.0000027-0.0000148
  30 h     dx  0.0000011-0.0000048-0.0000043 0.0000045 0.0000035-0.0000077
           dy  0.0000007-0.0000014-0.0000008-0.0000022 0.0000033-0.0000048
           dz  0.0000033-0.0000030-0.0000036-0.0000016 0.0000039-0.0000069
  31 c     dx  0.0000008 0.0000035 0.0000044-0.0000051-0.0000077 0.0000072
           dy -0.0000014-0.0000007 0.0000050-0.0000108-0.0000042 0.0000022
           dz -0.0000004 0.0000062 0.0000095-0.0000021-0.0000110 0.0000020
  32 h     dx -0.0000114 0.0000013 0.0000050-0.0000082 0.0000024 0.0000001
           dy -0.0000003 0.0000078-0.0000091-0.0000190-0.0000250 0.0000183
           dz  0.0000078 0.0000028-0.0000194-0.0000197-0.0000215-0.0000026
  33 c     dx  0.0000892 0.0000281-0.0003023-0.0005183-0.0008420-0.0013302
           dy -0.0001079-0.0002471-0.0004053 0.0003113 0.0004974 0.0009271
           dz -0.0000552-0.0002292 0.0000252 0.0001353-0.0010830-0.0001662
  34 h     dx  0.0000014-0.0000011-0.0000053 0.0000053-0.0000011-0.0000026
           dy  0.0000014-0.0000022 0.0000046-0.0000047 0.0000040-0.0000064
           dz  0.0000023-0.0000033-0.0000011-0.0000064 0.0000046-0.0000076
  35 h     dx -0.0000201 0.0000082-0.0000359 0.0000343-0.0001399 0.0001183
           dy  0.0000164 0.0000184-0.0000083-0.0000448 0.0000677 0.0000221
           dz  0.0000271 0.0000100 0.0000012-0.0001516 0.0002892-0.0000333
  36 c     dx -0.0001330 0.0001789-0.0001100 0.0006278-0.0004215 0.0013037
           dy  0.0001081 0.0001165-0.0001837 0.0002486-0.0003069 0.0002184
           dz  0.0002012 0.0000425 0.0003121-0.0003177-0.0002179-0.0001707
  37 h     dx  0.0000034-0.0000051-0.0000012 0.0000073 0.0000025-0.0000063
           dy  0.0000004 0.0000024 0.0000005 0.0000014 0.0000025-0.0000029
           dz  0.0000003 0.0000032 0.0000049 0.0000085-0.0000011-0.0000036
  38 n     dx -0.0000138-0.0000443-0.0001158 0.0002381-0.0000786 0.0003043
           dy  0.0000394-0.0000647 0.0001121-0.0002387 0.0001662-0.0004374
           dz  0.0000043 0.0000004-0.0000449 0.0000126-0.0000536 0.0001260
  39 h     dx -0.0000011 0.0000019 0.0000005 0.0000013-0.0000012 0.0000011
           dy  0.0000000-0.0000009-0.0000008-0.0000011 0.0000009 0.0000001
           dz  0.0000008-0.0000014-0.0000017 0.0000003 0.0000006 0.0000033
  40 c     dx  0.0000547-0.0000128 0.0000608-0.0002721 0.0001475-0.0004905
           dy  0.0000039 0.0000208 0.0000378 0.0001523 0.0000537 0.0000151
           dz -0.0000180-0.0000211-0.0000385-0.0000389 0.0000517 0.0000263
  41 n     dx  0.0000898 0.0000904 0.0004001 0.0001986-0.0001665-0.0006449
           dy -0.0002701 0.0000477-0.0001278 0.0003989-0.0012462 0.0009502
           dz  0.0001233 0.0000947 0.0000207-0.0003593 0.0007284-0.0003083
  42 h     dx  0.0000037-0.0000029-0.0000150-0.0000443-0.0000182-0.0000251
           dy  0.0000238-0.0000062 0.0000337-0.0000013-0.0000293-0.0000286
           dz -0.0000022 0.0000374 0.0000855 0.0001842-0.0001091 0.0000295
  43 c     dx  0.0000446-0.0000567 0.0000367-0.0002764 0.0002528-0.0003418
           dy  0.0000082 0.0000522 0.0000619 0.0002386-0.0001756 0.0001044
           dz -0.0000093 0.0000106 0.0000042-0.0000462-0.0001678 0.0000447
  44 h     dx -0.0000037-0.0000037-0.0000026 0.0000056 0.0000099-0.0000092
           dy  0.0000028 0.0000014-0.0000014 0.0000029 0.0000028-0.0000044
           dz -0.0000047-0.0000005 0.0000006-0.0000010-0.0000028 0.0000056
  45 h     dx -0.0000002-0.0000002-0.0000005 0.0000006-0.0000002 0.0000017
           dy -0.0000006 0.0000048 0.0000041 0.0000001-0.0000062 0.0000083
           dz  0.0000001 0.0000010 0.0000014 0.0000006-0.0000014 0.0000005
  46 h     dx  0.0000012 0.0000036 0.0000003-0.0000022-0.0000035 0.0000038
           dy -0.0000037-0.0000052 0.0000035 0.0000016 0.0000024-0.0000027
           dz -0.0000009 0.0000040-0.0000009 0.0000031-0.0000054 0.0000095
  47 h     dx -0.0000002 0.0000012 0.0000006 0.0000006-0.0000007 0.0000023
           dy  0.0000004 0.0000009 0.0000013-0.0000015-0.0000013 0.0000011
           dz  0.0000002-0.0000005-0.0000006-0.0000006-0.0000006 0.0000009
  48 c     dx  0.0000015-0.0000050-0.0000065 0.0000033 0.0000218-0.0000293
           dy -0.0000179-0.0000303-0.0000584-0.0000474 0.0000055 0.0000316
           dz  0.0000086 0.0000045 0.0000184 0.0000162-0.0000129-0.0000254
  49 c     dx  0.0000014-0.0000032-0.0000023-0.0000043 0.0000028-0.0000018
           dy -0.0000002-0.0000013-0.0000034 0.0000003 0.0000005 0.0000080
           dz  0.0000029-0.0000096-0.0000097-0.0000005 0.0000130-0.0000087
  50 n     dx -0.0000212 0.0000529 0.0000175 0.0001749-0.0001791 0.0002498
           dy  0.0000141-0.0000101-0.0000112-0.0001402 0.0000219-0.0000772
           dz  0.0000061 0.0000138-0.0000024 0.0000230-0.0000003 0.0000025
  51 c     dx -0.0000133-0.0000108-0.0000213 0.0000264-0.0000250 0.0000800
           dy  0.0000057-0.0000327 0.0000137-0.0002811 0.0000350-0.0002353
           dz  0.0000016 0.0000126 0.0000085 0.0000621-0.0000275 0.0000004
  52 h     dx -0.0000002 0.0000003 0.0000004-0.0000001-0.0000019 0.0000039
           dy  0.0000002-0.0000020-0.0000012-0.0000007 0.0000024-0.0000031
           dz  0.0000003-0.0000018-0.0000020 0.0000006 0.0000033-0.0000037
  53 h     dx -0.0000009 0.0000044 0.0000011-0.0000029-0.0000024 0.0000012
           dy  0.0000058-0.0000006-0.0000023-0.0000085 0.0000038-0.0000093
           dz -0.0000007-0.0000035 0.0000037-0.0000032 0.0000028-0.0000062
  54 h     dx -0.0000028 0.0000046-0.0000105 0.0000066-0.0000180 0.0000224
           dy -0.0000044-0.0000012-0.0000055 0.0000088 0.0000043-0.0000004
           dz -0.0000182-0.0000060 0.0000011 0.0000035 0.0000052 0.0000083
  55 h     dx  0.0000007 0.0000024 0.0000043-0.0000039-0.0000064 0.0000067
           dy -0.0000006 0.0000031 0.0000025 0.0000012-0.0000036 0.0000080
           dz  0.0000015 0.0000007-0.0000002 0.0000046 0.0000025-0.0000042
  56 h     dx  0.0000014-0.0000014-0.0000010 0.0000008 0.0000016-0.0000036
           dy -0.0000004 0.0000010 0.0000017 0.0000023-0.0000016 0.0000004
           dz -0.0000001 0.0000009 0.0000007-0.0000002-0.0000025 0.0000035
  57 c     dx  0.0004389-0.0008952-0.0000582-0.0007033 0.0036676 0.0025549
           dy  0.0001999 0.0014069 0.0019602 0.0046719-0.0236236-0.0099526
           dz  0.0002973 0.0001980 0.0009237 0.0064259-0.0288413 0.0059183
  58 n     dx -0.0000114-0.0000098-0.0000110-0.0000518-0.0000155 0.0000279
           dy -0.0000181 0.0000064-0.0000097-0.0000199-0.0000585 0.0001019
           dz  0.0000075 0.0000010-0.0000027 0.0000019 0.0000005-0.0000083
  59 c     dx  0.0000336-0.0000175-0.0000004 0.0000579 0.0000809-0.0001308
           dy -0.0000121 0.0000224-0.0000217 0.0002109-0.0000429 0.0002199
           dz  0.0000082-0.0000172-0.0000121-0.0000393 0.0000395-0.0000194
  60 c     dx  0.0000151-0.0000101 0.0000197-0.0000375 0.0000069-0.0000919
           dy -0.0000339 0.0000152-0.0000502 0.0000244-0.0001434 0.0002630
           dz  0.0000123-0.0000114 0.0000001-0.0000446 0.0000175-0.0000376
  61 c     dx  0.0000488-0.0000188 0.0000286-0.0000620 0.0001436-0.0002835
           dy -0.0000307 0.0000540 0.0000314 0.0001944-0.0001360 0.0002314
           dz  0.0000033-0.0000179 0.0000007-0.0000216 0.0000152-0.0000682
  62 h     dx  0.0000011-0.0000053-0.0000034-0.0000007 0.0000070-0.0000106
           dy -0.0000002 0.0000004-0.0000003 0.0000001-0.0000010 0.0000020
           dz -0.0000003 0.0000009 0.0000001 0.0000014-0.0000021 0.0000040
  63 c     dx  0.0000005-0.0000029-0.0000046-0.0000021 0.0000037 0.0000001
           dy -0.0000001-0.0000040-0.0000022 0.0000020 0.0000070-0.0000080
           dz -0.0000014 0.0000023 0.0000030 0.0000020 0.0000027-0.0000027
  64 c     dx -0.0000144-0.0000289-0.0000603-0.0000548 0.0000167 0.0000282
           dy -0.0000033 0.0000034-0.0000102 0.0000176-0.0000243 0.0000373
           dz -0.0000017-0.0000066-0.0000101-0.0000060 0.0000083-0.0000075
  65 c     dx -0.0000019-0.0000077-0.0000080 0.0000057 0.0000110-0.0000216
           dy  0.0000013 0.0000024-0.0000002 0.0000084 0.0000019 0.0000002
           dz -0.0000090-0.0000043-0.0000045-0.0000018 0.0000016-0.0000050
  66 c     dx  0.0000459-0.0000327 0.0000254-0.0001418 0.0001420-0.0003200
           dy  0.0000185 0.0000095 0.0000481 0.0000045 0.0000486-0.0001072
           dz  0.0000031-0.0000054-0.0000016-0.0000202 0.0000040-0.0000284
  67 c     dx -0.0000674 0.0000402-0.0000437 0.0001646-0.0002125 0.0004335
           dy -0.0000072 0.0000006-0.0000016-0.0000426-0.0000260 0.0000463
           dz -0.0000034 0.0000062-0.0000040 0.0000333-0.0000165 0.0000631
  68 h     dx -0.0000016 0.0000037 0.0000061-0.0000020-0.0000337 0.0000216
           dy  0.0000109 0.0000023 0.0000152-0.0000146-0.0000096 0.0000124
           dz -0.0000173-0.0000190-0.0000076 0.0000137 0.0000851-0.0000269
  69 c     dx -0.0000043 0.0000054 0.0000073-0.0000085-0.0000109 0.0000063
           dy  0.0000307-0.0000379-0.0000002-0.0001126 0.0000965-0.0002290
           dz -0.0000014-0.0000036-0.0000037 0.0000101-0.0000088 0.0000265
  70 h     dx -0.0000005 0.0000002-0.0000010 0.0000029-0.0000003 0.0000040
           dy  0.0000002 0.0000022 0.0000011 0.0000037-0.0000022 0.0000053
           dz -0.0000004-0.0000010-0.0000011 0.0000004 0.0000027-0.0000034
  71 c     dx -0.0000011 0.0000047 0.0000029-0.0000010-0.0000060 0.0000125
           dy  0.0000004-0.0000013-0.0000041-0.0000004 0.0000050-0.0000041
           dz -0.0000014 0.0000006-0.0000039 0.0000043-0.0000018 0.0000163
  72 c     dx -0.0000276 0.0000370 0.0000027 0.0001123-0.0000912 0.0002092
           dy -0.0000018-0.0000003-0.0000081 0.0000269-0.0000005 0.0000265
           dz -0.0000000 0.0000070-0.0000036 0.0000138-0.0000138 0.0000216
  73 h     dx  0.0000024 0.0000025 0.0000043 0.0000018-0.0000047 0.0000010
           dy -0.0000008-0.0000021-0.0000013-0.0000000 0.0000018-0.0000043
           dz  0.0000034 0.0000012 0.0000026-0.0000002 0.0000000-0.0000018
  74 c     dx  0.0000006 0.0000051 0.0000499-0.0000312 0.0001595-0.0001137
           dy  0.0000276-0.0001325-0.0000436-0.0005215 0.0003951-0.0002342
           dz  0.0000409 0.0000005-0.0000105-0.0000101 0.0000401-0.0000043
  75 h     dx  0.0000005 0.0000009 0.0000011-0.0000006-0.0000005 0.0000021
           dy -0.0000008 0.0000016 0.0000012-0.0000004-0.0000042 0.0000051
           dz  0.0000005-0.0000010-0.0000008-0.0000006 0.0000014 0.0000001
  76 h     dx -0.0000008 0.0000030 0.0000032-0.0000021-0.0000062 0.0000086
           dy  0.0000006 0.0000033 0.0000036-0.0000018-0.0000062 0.0000047
           dz -0.0000007 0.0000000-0.0000004-0.0000001-0.0000013 0.0000004
  77 h     dx  0.0000008-0.0000011-0.0000002-0.0000020 0.0000036-0.0000069
           dy  0.0000010-0.0000022-0.0000017-0.0000003 0.0000023-0.0000025
           dz  0.0000004-0.0000007 0.0000004-0.0000028-0.0000004-0.0000002
  78 c     dx -0.0000011 0.0000019 0.0000014 0.0000004-0.0000036 0.0000117
           dy  0.0000013-0.0000070-0.0000053 0.0000030 0.0000075-0.0000098
           dz  0.0000013-0.0000087-0.0000078 0.0000022 0.0000094-0.0000090
  79 h     dx  0.0000004 0.0000010 0.0000011-0.0000001-0.0000018 0.0000038
           dy -0.0000003-0.0000012-0.0000009-0.0000001 0.0000014-0.0000017
           dz  0.0000007 0.0000006 0.0000010 0.0000002-0.0000017 0.0000006
  80 h     dx  0.0000007-0.0000034-0.0000024 0.0000009 0.0000056-0.0000085
           dy -0.0000011 0.0000025 0.0000012 0.0000008-0.0000045 0.0000092
           dz  0.0000003-0.0000008-0.0000014 0.0000008 0.0000008 0.0000003
  81 c     dx  0.0000007-0.0000026-0.0000040 0.0000009 0.0000041 0.0000010
           dy -0.0000000 0.0000037 0.0000038 0.0000007-0.0000037 0.0000024
           dz -0.0000012-0.0000040-0.0000051 0.0000013 0.0000015-0.0000042
  82 h     dx  0.0000012-0.0000035-0.0000023-0.0000001 0.0000053-0.0000078
           dy -0.0000012 0.0000031 0.0000026-0.0000011-0.0000044 0.0000061
           dz  0.0000003-0.0000008-0.0000007-0.0000004 0.0000010-0.0000008
  83 c     dx  0.0000007-0.0000003-0.0000002-0.0000029 0.0000015-0.0000030
           dy -0.0000017 0.0000013 0.0000000-0.0000000-0.0000061 0.0000124
           dz -0.0000012-0.0000012-0.0000042 0.0000031-0.0000027 0.0000096
  84 h     dx -0.0000011-0.0000004 0.0000002 0.0000005-0.0000009 0.0000024
           dy -0.0000001-0.0000019-0.0000015 0.0000011 0.0000029-0.0000055
           dz -0.0000007 0.0000014 0.0000013-0.0000004-0.0000032 0.0000066
  85 h     dx -0.0000002-0.0000006-0.0000006 0.0000000 0.0000011-0.0000014
           dy -0.0000008 0.0000041 0.0000031-0.0000013-0.0000064 0.0000097
           dz  0.0000013-0.0000027-0.0000023-0.0000001 0.0000044-0.0000070
  86 h     dx  0.0000012-0.0000006-0.0000006-0.0000005 0.0000018-0.0000031
           dy  0.0000007-0.0000020-0.0000011-0.0000000 0.0000025-0.0000032
           dz  0.0000004-0.0000007-0.0000002-0.0000002 0.0000004 0.0000003

   ATOM              3 h                           4 h 
                  dx        dy        dz        dx        dy        dz
   3 h     dx  0.1988586
           dy  0.0911250 0.1105486
           dz -0.1056035-0.0631485 0.1229213
   4 h     dx  0.0004432 0.0000013 0.0001606 0.0852489
           dy  0.0000041 0.0001650 0.0000528-0.0849520 0.2784076
           dz -0.0001820-0.0000116-0.0002360-0.0231905 0.0710309 0.0723524
   5 h     dx -0.0000027 0.0001383-0.0002377 0.0000932-0.0000249 0.0000663
           dy  0.0002926 0.0006400-0.0000016 0.0000187-0.0000148 0.0000702
           dz  0.0001326 0.0006197 0.0013499-0.0000764 0.0000573-0.0000150
   6 c     dx -0.0001262 0.0006909-0.0003904-0.0001679 0.0000828 0.0000398
           dy  0.0002138 0.0001056-0.0003243 0.0001871-0.0000045-0.0000642
           dz -0.0000455-0.0001239-0.0001024-0.0000205-0.0000009 0.0000016
   7 c     dx -0.1854852-0.0842367 0.0944905-0.0005473-0.0003860 0.0002323
           dy -0.0844602-0.0980645 0.0617865-0.0001973-0.0004277-0.0003072
           dz  0.0957309 0.0615294-0.1120853-0.0001662 0.0002125 0.0007686
   8 c     dx -0.0003903 0.0030281-0.0007269-0.0129946 0.0008858-0.0030189
           dy  0.0011204-0.0029873-0.0000187 0.0309486 0.0006299 0.0057745
           dz  0.0004799 0.0015230-0.0001782 0.0068493 0.0018163 0.0006811
   9 h     dx  0.0013039 0.0004302 0.0000970 0.0000124-0.0001037 0.0000055
           dy  0.0006694-0.0007999-0.0032979-0.0001396 0.0000028-0.0000637
           dz  0.0001141-0.0033664-0.0045267-0.0003571-0.0000183-0.0002290
  10 c     dx -0.0000695 0.0005061-0.0000636-0.0768232 0.0791794 0.0261471
           dy  0.0000448 0.0001102-0.0001178 0.0771146-0.2585596-0.0632134
           dz  0.0001750 0.0002282 0.0002169 0.0252715-0.0640460-0.0639487
  11 h     dx -0.0000366 0.0000052-0.0000214 0.0000074-0.0000046 0.0000007
           dy -0.0000172 0.0000222-0.0000508-0.0000100 0.0000051 0.0000013
           dz -0.0000270 0.0000185-0.0000887-0.0000052 0.0000008 0.0000014
  12 h     dx -0.0000139 0.0000049-0.0000217 0.0003178-0.0006046-0.0020940
           dy -0.0000460-0.0000109-0.0000219-0.0003662 0.0014710-0.0005349
           dz -0.0000515 0.0000079-0.0000048-0.0020540-0.0005280-0.0058113
  13 c     dx -0.0000538-0.0001229 0.0001602 0.0000364-0.0000518 0.0000191
           dy  0.0000065-0.0000449 0.0000474 0.0000160-0.0000078 0.0000084
           dz -0.0000103-0.0000191-0.0000173-0.0000066-0.0000001 0.0000097
  14 c     dx  0.0000223-0.0007715 0.0002727-0.0043039-0.0000500-0.0012391
           dy  0.0002791-0.0010757-0.0002245-0.0018158 0.0005463-0.0002005
           dz  0.0003732-0.0011546 0.0001672 0.0008906-0.0008212 0.0004018
  15 h     dx  0.0000045 0.0000097-0.0000063-0.0000076 0.0000050-0.0000002
           dy  0.0000050 0.0000063-0.0000023-0.0000078 0.0000066-0.0000016
           dz  0.0000001-0.0000024 0.0000013 0.0000006 0.0000001 0.0000001
  16 h     dx  0.0000014 0.0000014 0.0000003-0.0000008 0.0000008-0.0000027
           dy -0.0000031-0.0000034 0.0000004-0.0000088-0.0000153 0.0000139
           dz  0.0000004 0.0000013 0.0000004 0.0000031 0.0000031 0.0000069
  17 h     dx -0.0000041-0.0000316 0.0000303 0.0000040-0.0000011-0.0000022
           dy  0.0000093-0.0000085-0.0000017 0.0000008-0.0000019 0.0000004
           dz -0.0000053-0.0000029-0.0000010-0.0000018 0.0000012-0.0000005
  18 c     dx -0.0000007 0.0000055 0.0000001-0.0000062 0.0000066-0.0000011
           dy -0.0000013 0.0000007-0.0000011 0.0000029-0.0000024-0.0000006
           dz -0.0000020 0.0000013 0.0000003 0.0000028-0.0000055 0.0000000
  19 c     dx  0.0000322-0.0000403-0.0000589-0.0000131 0.0000067-0.0000000
           dy  0.0000287-0.0000010 0.0000527 0.0000210-0.0000141 0.0000013
           dz  0.0000167-0.0000112 0.0000804 0.0000152-0.0000094-0.0000007
  20 c     dx -0.0000010 0.0000709 0.0000125-0.0000028-0.0000025 0.0000024
           dy -0.0000210 0.0000565-0.0000222-0.0000141 0.0000064-0.0000005
           dz  0.0000107 0.0000417-0.0000212-0.0000113 0.0000061 0.0000003
  21 c     dx  0.0000175-0.0000347 0.0000584 0.0029765 0.0008543 0.0097656
           dy  0.0000092 0.0000192 0.0000004-0.0079277-0.0035303-0.0302012
           dz  0.0001008 0.0000872 0.0000213-0.0023946-0.0019414-0.0119396
  22 c     dx -0.0000059-0.0000078-0.0000061 0.0000074-0.0000082-0.0000006
           dy -0.0000043-0.0000006-0.0000036-0.0000000-0.0000048-0.0000013
           dz -0.0000012 0.0000109-0.0000016-0.0000005 0.0000015-0.0000026
  23 h     dx -0.0008934 0.0007428-0.0008883-0.0000597 0.0000184 0.0000087
           dy  0.0006103 0.0003907-0.0000782-0.0000547 0.0000264 0.0000056
           dz -0.0000627 0.0004145-0.0000595-0.0000128 0.0000240 0.0000203
  24 h     dx -0.0000006-0.0000048-0.0000038 0.0000124-0.0000091 0.0000025
           dy  0.0000012-0.0000005-0.0000006 0.0000042-0.0000023 0.0000013
           dz -0.0000009 0.0000007 0.0000017-0.0000065-0.0000041-0.0000009
  25 h     dx  0.0000549-0.0000877 0.0000504 0.0051435 0.0070806-0.0069730
           dy -0.0001913-0.0000141-0.0001515-0.0132950-0.0191473 0.0161720
           dz -0.0000937-0.0000058-0.0000455-0.0047850-0.0055382 0.0054050
  26 h     dx -0.0193597 0.0027116-0.0117619-0.0002142-0.0010818 0.0000724
           dy -0.0121490 0.0014810-0.0081804-0.0009807-0.0004233 0.0004697
           dz  0.0134837-0.0025654 0.0092773 0.0006803-0.0000577-0.0002284
  27 h     dx  0.0000096-0.0000188-0.0000162-0.0000049 0.0000030 0.0000013
           dy  0.0000213-0.0000135-0.0000123-0.0000134 0.0000103-0.0000004
           dz -0.0000058-0.0000076 0.0000102 0.0000075-0.0000054 0.0000008
  28 h     dx  0.0000033-0.0000402-0.0000024 0.0003207-0.0003447-0.0001356
           dy -0.0000073-0.0000076-0.0000037-0.0002680 0.0001352 0.0003736
           dz  0.0000118-0.0000572 0.0000154 0.0003607-0.0001663 0.0013516
  29 h     dx  0.0000049-0.0000121 0.0000358-0.0000026 0.0000054-0.0000031
           dy -0.0000019 0.0000116-0.0000176-0.0000079 0.0000056-0.0000013
           dz -0.0000051-0.0000064-0.0000152 0.0000014-0.0000001-0.0000009
  30 h     dx  0.0000037 0.0000028 0.0000047-0.0000061 0.0000071-0.0000015
           dy -0.0000001 0.0000019 0.0000005-0.0000022 0.0000017-0.0000004
           dz  0.0000007 0.0000009 0.0000015-0.0000030 0.0000040-0.0000012
  31 c     dx  0.0000033 0.0000011-0.0000041 0.0000173 0.0000173-0.0000011
           dy  0.0000048 0.0000051-0.0000066 0.0000122 0.0000070-0.0000241
           dz  0.0000050-0.0000032-0.0000039 0.0000171 0.0000134-0.0000118
  32 h     dx -0.0000174-0.0000034 0.0000075 0.0000001 0.0000009-0.0000001
           dy -0.0000116 0.0000004 0.0000177 0.0000108-0.0000046-0.0000030
           dz  0.0000180-0.0000375 0.0000481 0.0000019 0.0000021-0.0000024
  33 c     dx -0.0012068-0.0005446 0.0004081-0.0001389 0.0005713 0.0000532
           dy -0.0005076 0.0011913 0.0003295 0.0006064-0.0000937 0.0001291
           dz -0.0007128-0.0008550 0.0004042-0.0003850-0.0000784-0.0000464
  34 h     dx  0.0000037-0.0000037 0.0000076 0.0000006 0.0000011-0.0000018
           dy -0.0000008 0.0000021-0.0000047 0.0000004-0.0000008 0.0000010
           dz  0.0000001 0.0000017-0.0000007-0.0000035 0.0000025-0.0000003
  35 h     dx -0.0000560-0.0000417 0.0000464-0.0001750 0.0000144-0.0000382
           dy -0.0000333 0.0000914-0.0000449-0.0003815 0.0000502-0.0000479
           dz  0.0001025-0.0000538-0.0000532-0.0003047-0.0000435-0.0000445
  36 c     dx  0.0001781-0.0006168 0.0006612 0.0003776-0.0001472-0.0000769
           dy  0.0008796-0.0003372 0.0004291 0.0000075-0.0000200-0.0000542
           dz -0.0002515 0.0000041 0.0002305 0.0001076-0.0000452-0.0000300
  37 h     dx  0.0000016 0.0000058-0.0000003-0.0000047 0.0000038-0.0000020
           dy -0.0000035 0.0000007-0.0000013-0.0000007-0.0000010 0.0000018
           dz  0.0000003-0.0000019-0.0000013-0.0000003-0.0000036 0.0000008
  38 n     dx  0.0001639-0.0002978 0.0001820 0.0000191-0.0000205-0.0000685
           dy -0.0001079 0.0002827-0.0001548-0.0001695 0.0000696 0.0000472
           dz -0.0001636-0.0000183 0.0000485-0.0000015-0.0000023-0.0000219
  39 h     dx -0.0000018-0.0000017 0.0000000 0.0000034-0.0000029 0.0000000
           dy  0.0000006 0.0000007-0.0000002-0.0000006-0.0000001-0.0000002
           dz  0.0000012 0.0000005 0.0000015-0.0000017 0.0000017-0.0000006
  40 c     dx -0.0001385 0.0002683-0.0000756-0.0001608 0.0000694 0.0000555
           dy  0.0000794 0.0000106-0.0000825 0.0000755-0.0000029-0.0000512
           dz -0.0000019 0.0000734 0.0000258-0.0000021 0.0000131 0.0000212
  41 n     dx  0.0003979 0.0001107-0.0003515-0.0012969 0.0000330-0.0001114
           dy  0.0000868-0.0006395 0.0002018 0.0011671 0.0000098 0.0003550
           dz  0.0002040 0.0001033-0.0000357-0.0006524-0.0000575 0.0000608
  42 h     dx  0.0000014 0.0000010-0.0000252 0.0000775-0.0000644 0.0006251
           dy  0.0000292 0.0000330 0.0000346 0.0003700 0.0008100 0.0004141
           dz  0.0000608-0.0000010 0.0000708 0.0003178-0.0001748 0.0014243
  43 c     dx -0.0001024 0.0001483-0.0000820-0.0000052 0.0000780 0.0000736
           dy  0.0001082-0.0001854-0.0000616 0.0003186 0.0001772-0.0002173
           dz -0.0000010 0.0001953-0.0000275 0.0001010-0.0001114 0.0000892
  44 h     dx -0.0000020 0.0000025 0.0000026-0.0000137 0.0000103 0.0000046
           dy -0.0000026 0.0000009 0.0000017-0.0000025 0.0000050-0.0000055
           dz -0.0000046-0.0000054-0.0000014-0.0000108-0.0000296 0.0000307
  45 h     dx  0.0000005-0.0000006 0.0000005 0.0000007 0.0000009-0.0000002
           dy -0.0000034-0.0000056-0.0000027 0.0000072-0.0000097 0.0000017
           dz -0.0000010-0.0000014-0.0000014 0.0000028-0.0000024 0.0000023
  46 h     dx -0.0000011-0.0000017 0.0000003 0.0000020-0.0000018 0.0000005
           dy  0.0000011 0.0000034-0.0000028-0.0000014-0.0000004 0.0000006
           dz -0.0000018-0.0000060 0.0000021 0.0000052-0.0000040 0.0000000
  47 h     dx -0.0000007-0.0000012-0.0000004 0.0000021-0.0000022 0.0000004
           dy -0.0000008-0.0000007-0.0000014 0.0000015-0.0000010 0.0000008
           dz  0.0000000 0.0000000 0.0000006 0.0000003-0.0000002-0.0000004
  48 c     dx -0.0000002 0.0000402-0.0000068-0.0000648 0.0000147-0.0000294
           dy -0.0000088-0.0000175 0.0000700-0.0000706-0.0000017 0.0000353
           dz -0.0000108 0.0000314 0.0000005 0.0000178 0.0000047 0.0000263
  49 c     dx  0.0000016 0.0000039 0.0000003-0.0000050 0.0000034-0.0000007
           dy  0.0000010-0.0000022 0.0000021 0.0000006 0.0000004-0.0000013
           dz  0.0000009 0.0000076 0.0000002-0.0000076 0.0000041-0.0000016
  50 n     dx  0.0000732-0.0001615 0.0000280 0.0001903 0.0000478-0.0001096
           dy -0.0000701 0.0000444-0.0000028-0.0000659-0.0001187 0.0001454
           dz  0.0000119-0.0000360 0.0000142 0.0000326 0.0000746-0.0000567
  51 c     dx  0.0000338-0.0000464 0.0000431 0.0000115 0.0000062-0.0000086
           dy -0.0001476 0.0001597 0.0000172-0.0001895 0.0000334 0.0000809
           dz  0.0000332-0.0000482-0.0000269 0.0000171-0.0000038-0.0000158
  52 h     dx  0.0000012-0.0000003 0.0000000 0.0000026-0.0000002-0.0000011
           dy  0.0000010 0.0000016 0.0000008-0.0000034 0.0000024-0.0000003
           dz  0.0000008 0.0000027 0.0000009-0.0000040 0.0000012-0.0000011
  53 h     dx -0.0000004-0.0000002-0.0000004 0.0000022-0.0000027 0.0000005
           dy -0.0000001 0.0000017 0.0000002-0.0000030 0.0000027-0.0000005
           dz  0.0000008 0.0000024-0.0000042-0.0000014 0.0000005 0.0000002
  54 h     dx -0.0000031-0.0000201 0.0000107 0.0000156-0.0000088 0.0000049
           dy -0.0000024-0.0000073 0.0000124-0.0000187-0.0000035-0.0000037
           dz -0.0000072-0.0000028 0.0000119 0.0000060-0.0000083 0.0000028
  55 h     dx  0.0000003-0.0000033-0.0000035 0.0000132 0.0000045-0.0000019
           dy -0.0000036-0.0000077-0.0000004-0.0000032-0.0000189 0.0000137
           dz -0.0000001 0.0000024 0.0000006 0.0000027 0.0000157-0.0000016
  56 h     dx  0.0000019 0.0000024 0.0000004-0.0000010 0.0000043-0.0000007
           dy -0.0000017-0.0000015-0.0000018 0.0000040-0.0000063 0.0000026
           dz -0.0000002-0.0000010 0.0000006 0.0000036 0.0000016 0.0000022
  57 c     dx  0.0072509-0.0251915 0.0014431 0.0017812-0.0009515 0.0003487
           dy  0.0025274-0.0181027 0.0006692 0.0005714-0.0005803-0.0001801
           dz -0.0053813 0.0149019-0.0007276-0.0004388 0.0004941 0.0001012
  58 n     dx -0.0000163 0.0000071 0.0000290-0.0000435 0.0000187 0.0000137
           dy -0.0000060-0.0000402 0.0000310-0.0000029-0.0000030 0.0000080
           dz -0.0000064 0.0000000-0.0000127-0.0000047 0.0000076 0.0000011
  59 c     dx  0.0000441 0.0000440-0.0000571 0.0000053 0.0000243-0.0000308
           dy  0.0001158-0.0001460 0.0000134 0.0001455-0.0000178-0.0000621
           dz  0.0000090 0.0000343 0.0000192-0.0000105 0.0000049 0.0000074
  60 c     dx -0.0000038 0.0000305-0.0000345-0.0000294 0.0000013-0.0000013
           dy -0.0000225-0.0001559 0.0001046 0.0000362-0.0000626 0.0000066
           dz -0.0000075 0.0000163 0.0000027-0.0000068 0.0000093-0.0000101
  61 c     dx -0.0000321 0.0001482-0.0000871-0.0000231 0.0000052 0.0000211
           dy  0.0000699-0.0001337-0.0000062 0.0001460 0.0000254-0.0001125
           dz -0.0000240 0.0000312-0.0000152-0.0000619 0.0000265-0.0000028
  62 h     dx  0.0000037 0.0000057 0.0000015-0.0000083 0.0000081-0.0000010
           dy -0.0000002-0.0000012 0.0000001 0.0000007-0.0000007-0.0000001
           dz -0.0000009-0.0000023-0.0000007 0.0000031-0.0000024 0.0000002
  63 c     dx -0.0000011 0.0000031 0.0000020-0.0000047 0.0000060-0.0000027
           dy  0.0000021 0.0000027-0.0000000-0.0000089 0.0000112-0.0000026
           dz  0.0000016-0.0000046-0.0000043 0.0000020-0.0000057 0.0000011
  64 c     dx -0.0000100-0.0000056 0.0000600-0.0000845 0.0000036 0.0000298
           dy  0.0000105-0.0000369 0.0000157 0.0000322 0.0000015 0.0000212
           dz -0.0000061-0.0000067 0.0000090-0.0000184-0.0000011-0.0000094
  65 c     dx -0.0000026 0.0000011 0.0000041-0.0000191-0.0000193 0.0000010
           dy  0.0000020 0.0000004 0.0000023 0.0000057 0.0000373 0.0000103
           dz -0.0000022-0.0000041 0.0000022-0.0000336-0.0000440-0.0000152
  66 c     dx -0.0000669 0.0001709-0.0000685-0.0001017 0.0000028 0.0000526
           dy -0.0000180 0.0000473-0.0000612 0.0000385-0.0000449 0.0000057
           dz -0.0000091 0.0000155-0.0000058-0.0000236 0.0000064 0.0000002
  67 c     dx  0.0000742-0.0002325 0.0001184 0.0001042 0.0000034-0.0000717
           dy -0.0000137-0.0000167 0.0000085-0.0000069-0.0000056 0.0000329
           dz  0.0000152-0.0000255 0.0000167 0.0000319-0.0000133 0.0000038
  68 h     dx  0.0000123 0.0000063-0.0000074 0.0001289 0.0001109-0.0000091
           dy  0.0000229 0.0000180-0.0000053 0.0001069 0.0003340-0.0002658
           dz  0.0000114-0.0000500 0.0000025-0.0000354-0.0000861-0.0000942
  69 c     dx -0.0000101-0.0000030 0.0000002 0.0000092-0.0000139 0.0000041
           dy -0.0000416 0.0001312-0.0000246-0.0001050 0.0000364 0.0000281
           dz -0.0000050-0.0000068-0.0000008 0.0000074-0.0000002-0.0000034
  70 h     dx  0.0000006-0.0000023 0.0000001 0.0000003 0.0000028-0.0000050
           dy -0.0000004-0.0000026-0.0000014 0.0000019-0.0000054 0.0000009
           dz  0.0000023 0.0000023-0.0000002-0.0000004-0.0000017 0.0000018
  71 c     dx -0.0000033-0.0000036 0.0000002 0.0000071-0.0000064 0.0000017
           dy  0.0000005-0.0000014-0.0000006-0.0000009 0.0000014-0.0000005
           dz -0.0000005-0.0000061 0.0000020 0.0000106-0.0000101-0.0000002
  72 c     dx  0.0000386-0.0001229 0.0000142 0.0001098-0.0000390-0.0000309
           dy  0.0000174-0.0000138 0.0000034 0.0000078 0.0000113-0.0000098
           dz  0.0000029-0.0000193 0.0000035 0.0000177-0.0000122-0.0000047
  73 h     dx  0.0000018 0.0000021-0.0000016 0.0000119 0.0000151 0.0000041
           dy  0.0000007 0.0000049-0.0000007 0.0000077 0.0000101-0.0000108
           dz  0.0000033 0.0000059-0.0000006 0.0000180 0.0000331-0.0000151
  74 c     dx -0.0000277 0.0004791-0.0000898-0.0001382-0.0002219-0.0000535
           dy -0.0001612 0.0001265-0.0000331-0.0007396-0.0000422 0.0003923
           dz -0.0000236-0.0001210-0.0000314-0.0000134 0.0001206-0.0000623
  75 h     dx -0.0000018-0.0000003-0.0000007 0.0000014-0.0000018 0.0000008
           dy -0.0000002-0.0000028-0.0000004 0.0000036-0.0000016 0.0000001
           dz  0.0000001 0.0000010 0.0000005-0.0000009 0.0000016 0.0000006
  76 h     dx -0.0000011-0.0000028-0.0000016 0.0000069-0.0000050 0.0000016
           dy -0.0000008-0.0000022-0.0000027 0.0000087-0.0000023 0.0000019
           dz -0.0000007-0.0000010 0.0000006-0.0000008-0.0000024-0.0000001
  77 h     dx  0.0000000 0.0000050-0.0000000-0.0000040 0.0000028-0.0000000
           dy  0.0000010 0.0000008 0.0000006-0.0000022 0.0000030-0.0000006
           dz -0.0000007 0.0000001-0.0000031 0.0000004-0.0000008 0.0000005
  78 c     dx -0.0000005-0.0000050 0.0000000 0.0000053-0.0000060-0.0000007
           dy  0.0000036 0.0000051 0.0000012-0.0000086 0.0000057-0.0000045
           dz  0.0000014 0.0000071 0.0000001-0.0000056 0.0000029-0.0000012
  79 h     dx -0.0000015-0.0000020-0.0000007 0.0000029-0.0000008 0.0000032
           dy  0.0000010 0.0000013 0.0000002-0.0000013 0.0000036-0.0000002
           dz  0.0000003-0.0000002-0.0000002 0.0000027 0.0000009 0.0000012
  80 h     dx  0.0000029 0.0000037 0.0000005-0.0000047 0.0000053-0.0000013
           dy -0.0000012-0.0000037-0.0000002 0.0000049-0.0000032 0.0000009
           dz  0.0000004 0.0000002 0.0000007-0.0000009 0.0000008-0.0000008
  81 c     dx  0.0000008-0.0000008-0.0000009-0.0000008-0.0000026-0.0000042
           dy -0.0000002-0.0000036-0.0000013 0.0000050-0.0000015 0.0000021
           dz  0.0000023 0.0000018 0.0000034-0.0000068 0.0000052-0.0000051
  82 h     dx  0.0000014 0.0000036 0.0000002-0.0000053 0.0000044-0.0000008
           dy -0.0000015-0.0000017-0.0000016 0.0000043-0.0000049 0.0000011
           dz -0.0000004 0.0000011 0.0000009-0.0000015 0.0000009 0.0000002
  83 c     dx -0.0000007 0.0000021-0.0000005-0.0000024 0.0000002 0.0000003
           dy -0.0000013-0.0000044-0.0000006 0.0000060-0.0000058 0.0000016
           dz -0.0000022-0.0000037 0.0000010 0.0000060-0.0000056 0.0000005
  84 h     dx  0.0000008-0.0000003-0.0000001 0.0000005-0.0000004 0.0000001
           dy  0.0000008 0.0000015 0.0000003-0.0000028 0.0000026-0.0000011
           dz -0.0000013-0.0000018-0.0000003 0.0000029-0.0000036 0.0000015
  85 h     dx  0.0000003 0.0000005 0.0000004-0.0000013 0.0000011-0.0000001
           dy -0.0000029-0.0000044-0.0000016 0.0000070-0.0000071 0.0000015
           dz  0.0000013 0.0000034 0.0000005-0.0000043 0.0000035-0.0000008
  86 h     dx  0.0000005 0.0000006 0.0000002-0.0000009 0.0000020-0.0000001
           dy  0.0000009 0.0000017 0.0000003-0.0000021 0.0000025-0.0000003
           dz -0.0000002 0.0000007-0.0000003-0.0000001 0.0000001 0.0000002

   ATOM              5 h                           6 c 
                  dx        dy        dz        dx        dy        dz
   5 h     dx  0.0559021
           dy -0.0555106 0.3180051
           dz  0.0075875-0.0379841 0.0549680
   6 c     dx  0.0000220 0.0001668 0.0002659 0.7058548
           dy  0.0000246-0.0000197-0.0000276-0.0910272 0.5807222
           dz  0.0000506 0.0000942 0.0000166 0.0721460-0.0542125 0.1868266
   7 c     dx -0.0015502 0.0022145 0.0062531 0.0002355 0.0002163-0.0002000
           dy  0.0027168-0.0116615-0.0298841 0.0002416-0.0008590 0.0000734
           dz -0.0006131 0.0030538 0.0033619 0.0008677 0.0000382 0.0001201
   8 c     dx -0.0003036 0.0007012 0.0004548-0.0025880 0.0011553-0.0003931
           dy -0.0001000 0.0006357-0.0004897-0.0152868 0.0125307-0.0030540
           dz  0.0001611-0.0001137 0.0002572 0.0015511-0.0017019 0.0002697
   9 h     dx  0.0058026 0.0030648-0.0044806 0.0001154-0.0000030 0.0000064
           dy -0.0235287-0.0110794 0.0147577-0.0000999 0.0000086-0.0000837
           dz  0.0026081 0.0012142-0.0025723 0.0000015-0.0000802 0.0000053
  10 c     dx  0.0000301 0.0002185 0.0001285 0.0002956-0.0002333 0.0002246
           dy  0.0000121-0.0000445-0.0001162-0.0004186-0.0001215-0.0000894
           dz  0.0000286-0.0001697-0.0002484 0.0000382 0.0002738-0.0008914
  11 h     dx  0.0000120-0.0000195-0.0000044-0.0013443-0.0000698-0.0008077
           dy  0.0000154-0.0000042 0.0000129 0.0002102 0.0013101 0.0006028
           dz -0.0000220 0.0000122 0.0000056 0.0004605-0.0005342 0.0003765
  12 h     dx -0.0000040 0.0000132 0.0000117 0.0000412-0.0000582 0.0000317
           dy  0.0000031 0.0000113 0.0000085 0.0000244 0.0000467-0.0000075
           dz -0.0000139 0.0000054 0.0000178 0.0000592 0.0000288 0.0000177
  13 c     dx  0.0000456-0.0001441-0.0000954-0.1573518-0.0523135-0.0039297
           dy  0.0000318-0.0000566-0.0000307-0.0581044-0.1321605 0.0011349
           dz -0.0000347 0.0000182-0.0000037-0.0059011 0.0012105-0.0692655
  14 c     dx -0.0000890 0.0001060-0.0001086-0.0132497-0.0026309-0.0010227
           dy  0.0002989-0.0001038-0.0001196 0.0093922-0.0187557 0.0027184
           dz -0.0001902 0.0002797 0.0003597-0.0021167 0.0014858-0.0018892
  15 h     dx -0.0000065 0.0000128 0.0000054 0.0002239-0.0005901-0.0001783
           dy -0.0000059 0.0000138 0.0000045-0.0003349-0.0002236 0.0000938
           dz  0.0000021-0.0000019 0.0000001 0.0001337-0.0001446 0.0000139
  16 h     dx -0.0000012 0.0000039 0.0000008 0.0000043 0.0000261-0.0000054
           dy  0.0000003-0.0000030-0.0000017 0.0000325-0.0000087 0.0000129
           dz -0.0000005 0.0000012 0.0000000 0.0000313-0.0000151 0.0000038
  17 h     dx  0.0000093-0.0000063-0.0000074-0.0002214-0.0000807-0.0001342
           dy -0.0000068 0.0000022 0.0000005-0.0001103-0.0002078-0.0001048
           dz  0.0000002 0.0000027 0.0000009 0.0001967 0.0001971 0.0001764
  18 c     dx -0.0000044 0.0000119 0.0000039-0.0008610 0.0001565 0.0018854
           dy  0.0000010-0.0000029 0.0000001-0.0006013-0.0001937-0.0002340
           dz  0.0000030-0.0000095-0.0000029-0.0003290-0.0009043-0.0000164
  19 c     dx -0.0000281 0.0000124 0.0000034 0.0071146-0.0224183 0.0046608
           dy  0.0000241-0.0000201-0.0000074-0.0046974-0.0125548-0.0005153
           dz  0.0000299-0.0000199-0.0000049 0.0018181-0.0021184 0.0000444
  20 c     dx  0.0000068-0.0000056 0.0000025-0.0004175-0.0002651 0.0000070
           dy -0.0000034 0.0000093 0.0000121 0.0001679 0.0003240 0.0006515
           dz -0.0000101 0.0000143 0.0000132-0.0007749-0.0012058 0.0000167
  21 c     dx  0.0000341-0.0001024-0.0001364-0.0002309 0.0002751-0.0002878
           dy -0.0000019 0.0000267 0.0000495 0.0002617-0.0002497 0.0000522
           dz  0.0000012 0.0000569 0.0000705 0.0000321-0.0002042 0.0000778
  22 c     dx  0.0000053-0.0000140-0.0000048-0.0001657 0.0020838-0.0019167
           dy  0.0000058-0.0000091-0.0000039 0.0036708-0.0043758 0.0024905
           dz -0.0000039 0.0000091 0.0000008-0.0007025 0.0021620 0.0075160
  23 h     dx  0.0000576 0.0000111 0.0000253 0.0048034 0.0278159-0.0026602
           dy  0.0000887-0.0000191 0.0000723-0.0004928-0.0098667 0.0013898
           dz -0.0001560-0.0000187 0.0000115 0.0007431 0.0043978 0.0003675
  24 h     dx  0.0000029-0.0000143-0.0000045-0.0000474-0.0000673 0.0000135
           dy -0.0000000-0.0000030-0.0000010-0.0000283 0.0000267-0.0000050
           dz -0.0000011 0.0000022 0.0000020 0.0000379 0.0000483-0.0000057
  25 h     dx  0.0000143-0.0000503-0.0000503-0.0002437 0.0001799 0.0001126
           dy -0.0000094-0.0000066 0.0000017 0.0000647-0.0000730 0.0000603
           dz -0.0000008-0.0000119 0.0000014-0.0001166-0.0000428-0.0000066
  26 h     dx  0.0002440-0.0004217-0.0004100 0.0002074 0.0000579-0.0001249
           dy -0.0003255 0.0002983 0.0004685 0.0002616 0.0000942 0.0001429
           dz  0.0001809 0.0000438 0.0012678-0.0002532 0.0000450-0.0000354
  27 h     dx -0.0000170 0.0000152 0.0000065-0.0002127 0.0001446-0.0002931
           dy -0.0000211 0.0000283 0.0000088 0.0001435 0.0002967 0.0001193
           dz  0.0000116-0.0000129-0.0000038-0.0000392 0.0002623-0.0001427
  28 h     dx  0.0000018-0.0000464-0.0000276-0.0000904 0.0000961-0.0000119
           dy  0.0000019-0.0000151-0.0000107 0.0000619 0.0000029-0.0000021
           dz  0.0000054-0.0000477-0.0000483-0.0000922 0.0001131-0.0000887
  29 h     dx -0.0000031 0.0000106-0.0000033 0.0008493 0.0001854-0.0006803
           dy -0.0000053 0.0000125 0.0000066 0.0025055-0.0036894-0.0005171
           dz  0.0000015-0.0000006-0.0000015 0.0000770 0.0011607 0.0004328
  30 h     dx -0.0000033 0.0000133 0.0000023-0.0001298-0.0000520 0.0002746
           dy -0.0000004 0.0000030 0.0000014-0.0003282-0.0000099 0.0001213
           dz -0.0000018 0.0000071 0.0000027-0.0001946 0.0002081 0.0004138
  31 c     dx  0.0000026-0.0000025-0.0000022-0.0000655-0.0000412-0.0000225
           dy  0.0000028 0.0000036-0.0000031-0.0001842 0.0000058-0.0000278
           dz  0.0000035-0.0000067-0.0000033-0.0000998-0.0001547 0.0000166
  32 h     dx  0.0000005 0.0000016-0.0000012 0.0000610 0.0000408-0.0000725
           dy  0.0000234-0.0000181-0.0000130-0.0001315-0.0001513 0.0003151
           dz -0.0000018 0.0000060-0.0000065-0.0003330 0.0004423-0.0002229
  33 c     dx -0.0002013-0.0002807 0.0000790-0.0757488 0.0142898-0.0117290
           dy -0.0002724 0.0001821-0.0002784-0.0164833 0.0287332-0.0035517
           dz -0.0002168-0.0002580-0.0000509-0.0085328 0.0001462 0.0118762
  34 h     dx -0.0000002 0.0000037 0.0000010-0.0005293 0.0008832-0.0015191
           dy -0.0000017-0.0000003 0.0000009-0.0001905 0.0001374-0.0004717
           dz -0.0000018 0.0000054 0.0000022-0.0004306-0.0001479-0.0002605
  35 h     dx  0.0000026-0.0000931-0.0000612 0.0020573-0.0053749 0.0006807
           dy  0.0000016 0.0000495 0.0000014-0.0021493-0.0016061-0.0000610
           dz  0.0000109 0.0000697 0.0000644 0.0004468-0.0004502 0.0004668
  36 c     dx  0.0001234-0.0003455-0.0003220-0.2747616 0.0445984-0.0283241
           dy  0.0001104-0.0001276-0.0001073 0.0927589-0.1406885 0.0178479
           dz  0.0002026-0.0002005-0.0000531-0.0330548 0.0126983-0.0712091
  37 h     dx -0.0000021 0.0000062 0.0000009-0.0010114-0.0006371 0.0000581
           dy  0.0000020-0.0000010 0.0000008 0.0010538 0.0012927 0.0000682
           dz -0.0000006 0.0000027 0.0000017-0.0002446 0.0000342 0.0007107
  38 n     dx -0.0000108 0.0000089-0.0000792-0.0877194 0.0184491-0.0037056
           dy -0.0000596 0.0001372 0.0001121-0.0071119-0.2840131 0.0215124
           dz  0.0000081-0.0000455-0.0000138-0.0010379 0.0245812-0.0769862
  39 h     dx  0.0000015-0.0000052-0.0000019 0.0000239-0.0000177 0.0000191
           dy -0.0000002 0.0000002 0.0000002-0.0000002 0.0000539 0.0000235
           dz -0.0000007 0.0000031 0.0000013-0.0000295-0.0000675-0.0000363
  40 c     dx -0.0000373 0.0001226 0.0001327-0.0703564 0.1021582-0.0188187
           dy  0.0000428 0.0000121 0.0000232 0.0485968-0.0468741 0.0102918
           dz -0.0000165 0.0000021 0.0000120-0.0131032 0.0170648-0.0030632
  41 n     dx  0.0001315 0.0000546 0.0002126 0.0100301 0.0045136 0.0012289
           dy  0.0000400-0.0006031-0.0005330 0.0188783-0.0044262 0.0022266
           dz  0.0000414 0.0002508 0.0001980-0.0003551 0.0006137-0.0036083
  42 h     dx -0.0000006 0.0000423 0.0000171 0.0000123-0.0000516 0.0000178
           dy -0.0000004 0.0000135-0.0000090-0.0000380 0.0000539 0.0000234
           dz -0.0000110 0.0000206-0.0000254-0.0000707 0.0000343-0.0000325
  43 c     dx -0.0000561 0.0001273 0.0001073-0.0101524 0.0117842-0.0022940
           dy  0.0000885-0.0000743-0.0000535-0.0008734-0.0084555 0.0006686
           dz -0.0000086 0.0000163-0.0000497-0.0009598 0.0020808-0.0011879
  44 h     dx -0.0000015 0.0000061 0.0000024 0.0000142 0.0000135 0.0000130
           dy -0.0000005 0.0000002 0.0000020-0.0000097 0.0000575-0.0000116
           dz  0.0000008-0.0000056-0.0000031 0.0000163 0.0000146-0.0000083
  45 h     dx  0.0000002-0.0000002-0.0000003 0.0000432-0.0000417 0.0000064
           dy  0.0000032-0.0000133-0.0000031-0.0000669-0.0000398 0.0000022
           dz  0.0000009-0.0000029-0.0000005-0.0000739-0.0000017-0.0000029
  46 h     dx  0.0000018-0.0000045-0.0000003 0.0001504 0.0000886-0.0000836
           dy -0.0000029 0.0000022-0.0000003-0.0001226 0.0000114 0.0001522
           dz  0.0000031-0.0000073-0.0000033 0.0003231 0.0001675-0.0000710
  47 h     dx  0.0000010-0.0000033-0.0000009 0.0000036-0.0000544-0.0000169
           dy  0.0000002-0.0000021-0.0000004-0.0000105 0.0000229-0.0000234
           dz -0.0000001-0.0000003-0.0000001 0.0000561-0.0000509-0.0000041
  48 c     dx -0.0000024 0.0000192 0.0000144-0.0008540 0.0005307-0.0001462
           dy -0.0000366 0.0000408-0.0000086 0.0046482 0.0014823 0.0004019
           dz  0.0000067-0.0000129-0.0000006-0.0006426-0.0001126-0.0000619
  49 c     dx -0.0000026 0.0000064 0.0000030-0.0000024 0.0001844-0.0000507
           dy -0.0000000 0.0000003-0.0000007 0.0002013-0.0002375 0.0000287
           dz -0.0000035 0.0000103 0.0000022-0.0000879 0.0004899 0.0000183
  50 n     dx  0.0000575-0.0001264-0.0000853 0.0065582-0.0087404 0.0015548
           dy -0.0000292-0.0000126 0.0000151-0.0065849 0.0081643-0.0014971
           dz  0.0000100-0.0000088 0.0000097 0.0012527-0.0016798 0.0011934
  51 c     dx -0.0000025-0.0000080-0.0000182-0.0006289-0.0143721 0.0000211
           dy -0.0000681 0.0000462 0.0000352-0.0115020 0.0378837-0.0043542
           dz -0.0000022 0.0000211-0.0000051 0.0000041-0.0045758 0.0083033
  52 h     dx  0.0000002-0.0000020-0.0000011 0.0000643-0.0000473 0.0000128
           dy -0.0000012 0.0000047 0.0000014 0.0000118 0.0000209 0.0000009
           dz -0.0000011 0.0000047 0.0000022-0.0000546 0.0000528-0.0000099
  53 h     dx  0.0000027-0.0000059 0.0000002-0.0000046-0.0000265 0.0000493
           dy -0.0000004 0.0000035 0.0000027-0.0000685 0.0000102-0.0000510
           dz -0.0000024 0.0000027 0.0000013-0.0003353-0.0000318-0.0001312
  54 h     dx  0.0000010-0.0000144-0.0000073 0.0009266-0.0000183 0.0002764
           dy  0.0000000 0.0000021-0.0000037 0.0027966-0.0031717 0.0005367
           dz  0.0000001-0.0000116-0.0000055-0.0000089 0.0001829-0.0015402
  55 h     dx  0.0000019-0.0000056-0.0000025-0.0000697-0.0000306-0.0000049
           dy  0.0000018-0.0000115-0.0000032 0.0000035-0.0000325 0.0000056
           dz -0.0000004 0.0000011 0.0000023-0.0000408-0.0000161-0.0000061
  56 h     dx -0.0000007 0.0000045 0.0000014-0.0000084-0.0000279 0.0000053
           dy  0.0000016-0.0000039-0.0000003-0.0001536-0.0000056-0.0000212
           dz  0.0000004-0.0000026-0.0000019 0.0000963-0.0000686 0.0000174
  57 c     dx  0.0013008-0.0001708-0.0001299 0.0188377-0.0182424 0.0034514
           dy  0.0002919-0.0008158-0.0011597-0.0011372-0.0052943 0.0013885
           dz  0.0007789-0.0033641-0.0050599 0.0012647-0.0006942 0.0060823
  58 n     dx -0.0000140 0.0000035-0.0000166 0.0036807 0.0040324-0.0002028
           dy -0.0000029-0.0000459-0.0000368 0.0035567 0.0019055 0.0003492
           dz -0.0000047 0.0000146 0.0000043-0.0002170 0.0004689 0.0019477
  59 c     dx -0.0000067 0.0000913 0.0000610-0.0071276-0.0033525-0.0001897
           dy  0.0000460-0.0000461-0.0000403 0.0076626-0.0263330 0.0031568
           dz  0.0000036-0.0000049 0.0000070-0.0014694 0.0017962-0.0021938
  60 c     dx -0.0000134 0.0000263 0.0000202-0.0641521-0.0070385-0.0086404
           dy  0.0000068-0.0001194-0.0001037 0.0301178 0.0123006 0.0030425
           dz  0.0000139-0.0000065 0.0000145-0.0116564-0.0007332 0.0046797
  61 c     dx -0.0000148 0.0000912 0.0000975-0.0129035 0.0077869-0.0022467
           dy  0.0000617-0.0001028-0.0000724 0.0078028-0.0122300 0.0020397
           dz -0.0000043 0.0000112 0.0000166-0.0021835 0.0020594-0.0009670
  62 h     dx -0.0000039 0.0000140 0.0000040-0.0000154 0.0001271-0.0000038
           dy  0.0000005-0.0000014-0.0000006 0.0000459-0.0000069 0.0000164
           dz  0.0000012-0.0000038-0.0000013-0.0000009-0.0001354 0.0000106
  63 c     dx -0.0000018 0.0000032 0.0000013 0.0000744 0.0001086-0.0000041
           dy -0.0000029 0.0000117 0.0000021 0.0000252-0.0000044 0.0000067
           dz  0.0000010-0.0000074 0.0000001-0.0002054-0.0000093-0.0000281
  64 c     dx -0.0000369 0.0000389-0.0000056 0.0039653 0.0020764 0.0002546
           dy  0.0000018-0.0000074-0.0000147 0.0006503-0.0001466 0.0001213
           dz -0.0000049 0.0000147 0.0000034 0.0004930 0.0002986 0.0000645
  65 c     dx -0.0000035 0.0000102 0.0000056-0.0000362 0.0000441 0.0000028
           dy -0.0000016 0.0000034 0.0000013 0.0000871 0.0000621-0.0000074
           dz -0.0000022 0.0000046 0.0000008 0.0001504 0.0001061-0.0000075
  66 c     dx -0.0000346 0.0001054 0.0000971-0.0131230 0.0129581-0.0028405
           dy  0.0000185-0.0000024 0.0000358-0.0081537-0.0017513-0.0007350
           dz -0.0000035 0.0000133 0.0000112-0.0007702 0.0016891-0.0004610
  67 c     dx  0.0000384-0.0001472-0.0001407 0.0187043-0.0140147 0.0035510
           dy -0.0000043-0.0000270-0.0000219 0.0018666 0.0012432 0.0001204
           dz -0.0000000-0.0000151-0.0000165 0.0019398-0.0016961 0.0006783
  68 h     dx  0.0000061-0.0000115-0.0000143-0.0001621 0.0001026-0.0000215
           dy  0.0000001 0.0000029-0.0000019-0.0000651 0.0003146 0.0000283
           dz  0.0000003 0.0000055 0.0000128 0.0000057 0.0000102 0.0002497
  69 c     dx  0.0000061-0.0000211-0.0000049 0.0001952-0.0004746 0.0001152
           dy -0.0000378 0.0001043 0.0000682-0.0084484 0.0141806-0.0022893
           dz -0.0000009-0.0000089-0.0000054 0.0007873-0.0010967 0.0000992
  70 h     dx  0.0000002 0.0000003-0.0000004 0.0001688-0.0001507 0.0000456
           dy  0.0000017-0.0000060-0.0000016-0.0000568-0.0000666 0.0000132
           dz -0.0000004 0.0000011-0.0000004-0.0000001-0.0000119 0.0000763
  71 c     dx  0.0000034-0.0000129-0.0000026-0.0001920 0.0001968-0.0000541
           dy -0.0000007 0.0000024 0.0000006-0.0001151 0.0002149-0.0000570
           dz  0.0000051-0.0000139-0.0000046 0.0000304-0.0004508 0.0000071
  72 c     dx  0.0000386-0.0001023-0.0000637 0.0066839-0.0123236 0.0020743
           dy  0.0000011 0.0000050-0.0000048 0.0012198-0.0024884 0.0003279
           dz  0.0000071-0.0000140-0.0000098 0.0008890-0.0015578 0.0002333
  73 h     dx  0.0000019-0.0000024-0.0000001-0.0001134-0.0000749-0.0000182
           dy -0.0000001 0.0000056 0.0000006-0.0000904 0.0000350-0.0000065
           dz -0.0000008 0.0000040 0.0000006-0.0000126-0.0000656 0.0000146
  74 c     dx -0.0000214 0.0000666 0.0000747 0.0054835-0.0034818 0.0008730
           dy -0.0001526 0.0002278 0.0000773-0.0054530 0.0180999-0.0023292
           dz -0.0000176-0.0000001 0.0000451 0.0009111-0.0019776 0.0012240
  75 h     dx  0.0000007-0.0000034-0.0000006-0.0000520 0.0000678 0.0000021
           dy  0.0000010-0.0000047-0.0000023 0.0001635-0.0001301 0.0000309
           dz -0.0000007 0.0000017 0.0000002 0.0000476 0.0000478-0.0000019
  76 h     dx  0.0000020-0.0000090-0.0000033 0.0000031-0.0000267 0.0000026
           dy  0.0000022-0.0000077-0.0000026-0.0000748-0.0000258-0.0000067
           dz -0.0000000-0.0000004-0.0000006 0.0000538-0.0000043 0.0000153
  77 h     dx -0.0000019 0.0000049 0.0000022-0.0000442 0.0002910-0.0000817
           dy -0.0000012 0.0000044 0.0000012 0.0000949-0.0000867-0.0000040
           dz -0.0000000-0.0000015-0.0000008 0.0000710 0.0000874 0.0000234
  78 c     dx  0.0000023-0.0000080-0.0000025 0.0002201-0.0002886 0.0000632
           dy -0.0000033 0.0000134 0.0000045-0.0000212 0.0001170-0.0000162
           dz -0.0000024 0.0000094 0.0000031-0.0002717 0.0001874-0.0001210
  79 h     dx  0.0000005-0.0000029-0.0000011 0.0000176-0.0000086 0.0000075
           dy -0.0000007 0.0000034 0.0000007 0.0000329-0.0000082 0.0000026
           dz  0.0000004-0.0000013-0.0000006-0.0000046-0.0000275 0.0000073
  80 h     dx -0.0000022 0.0000091 0.0000025-0.0000279 0.0000900-0.0000145
           dy  0.0000018-0.0000068-0.0000026 0.0000962-0.0001352 0.0000011
           dz -0.0000002 0.0000008 0.0000003 0.0000599-0.0000472 0.0000225
  81 c     dx  0.0000005 0.0000005 0.0000008-0.0000899-0.0000717-0.0000039
           dy  0.0000019-0.0000053-0.0000014-0.0000908-0.0000424-0.0000126
           dz -0.0000022 0.0000062-0.0000004 0.0002409-0.0000429 0.0000312
  82 h     dx -0.0000021 0.0000077 0.0000024-0.0000290 0.0001243 0.0000314
           dy  0.0000017-0.0000076-0.0000019 0.0000072 0.0000441-0.0000350
           dz -0.0000006 0.0000017 0.0000005-0.0000275 0.0001375-0.0000168
  83 c     dx -0.0000009 0.0000011 0.0000018-0.0001261 0.0002406-0.0000376
           dy  0.0000021-0.0000094-0.0000036 0.0001881-0.0001685 0.0000509
           dz  0.0000023-0.0000098-0.0000054 0.0002365-0.0001501 0.0000299
  84 h     dx -0.0000002-0.0000001-0.0000008 0.0000537-0.0000212 0.0000135
           dy -0.0000008 0.0000039 0.0000008-0.0000242 0.0000483 0.0000022
           dz  0.0000010-0.0000047-0.0000012-0.0000140-0.0000466 0.0000034
  85 h     dx -0.0000004 0.0000017 0.0000003 0.0000128 0.0000390-0.0000051
           dy  0.0000027-0.0000123-0.0000035 0.0000691-0.0000849 0.0000248
           dz -0.0000017 0.0000069 0.0000028-0.0001122 0.0001026-0.0000266
  86 h     dx -0.0000004 0.0000021 0.0000010 0.0000060-0.0000091 0.0000033
           dy -0.0000011 0.0000041 0.0000011-0.0000272 0.0000276 0.0000057
           dz -0.0000003 0.0000004 0.0000002-0.0000190 0.0000610 0.0000045

   ATOM              7 c                           8 c 
                  dx        dy        dz        dx        dy        dz
   7 c     dx  0.5894853
           dy  0.0212219 0.4892457
           dz  0.0146785-0.0462063 0.4815916
   8 c     dx  0.0120953 0.0021585 0.0018992 0.7281349
           dy -0.0177878-0.0234173 0.0010741 0.0465645 0.5848192
           dz  0.0014352 0.0027654 0.0046363 0.0726476-0.0323910 0.1826808
   9 h     dx -0.0017231-0.0005587 0.0008915-0.0000035 0.0003903 0.0000528
           dy  0.0126896 0.0056958-0.0087589-0.0002042-0.0001498 0.0001654
           dz  0.0222955 0.0111813-0.0164421 0.0001744-0.0001354 0.0002098
  10 c     dx  0.0006870 0.0012178 0.0012977-0.2183850 0.0073532-0.0193578
[...]
                  z  -0.00001 -0.00001  0.00001  0.00023 -0.00003  0.00002
  3   h           x   0.00009  0.00028  0.00039 -0.01083  0.00055 -0.00041
                  y   0.00007  0.00017  0.00009 -0.00667  0.00059 -0.00045
                  z  -0.00007 -0.00018 -0.00022  0.00663 -0.00051  0.00040
  4   h           x  -0.00006  0.00007 -0.00055  0.00048 -0.00036  0.00023
                  y   0.00015 -0.00019  0.00255 -0.00100  0.00023 -0.00014
                  z   0.00004 -0.00006  0.00076 -0.00031  0.00003 -0.00003
  5   h           x  -0.00003  0.00004  0.00012 -0.00057 -0.00008  0.00005
                  y   0.00013 -0.00018 -0.00048  0.00182  0.00067 -0.00045
                  z  -0.00001  0.00003 -0.00000 -0.00048  0.00007 -0.00007
  6   c           x  -0.00027 -0.00010 -0.00022  0.00264 -0.00035  0.00064
                  y   0.00016 -0.00004  0.00007 -0.00017  0.00026 -0.00081
                  z   0.00000 -0.00000 -0.00002  0.00022 -0.00006  0.00016
  7   c           x   0.00000 -0.00003 -0.00013  0.00082 -0.00010  0.00008
                  y  -0.00000 -0.00001  0.00003  0.00039 -0.00007  0.00005
                  z   0.00001  0.00001 -0.00005 -0.00045  0.00006 -0.00005
  8   c           x  -0.00002  0.00001 -0.00052  0.00016 -0.00080  0.00064
                  y  -0.00005  0.00005 -0.00006 -0.00003  0.00100 -0.00089
                  z   0.00000 -0.00001 -0.00008  0.00002 -0.00017  0.00015
  9   h           x  -0.00002  0.00006  0.00025 -0.00164  0.00004 -0.00004
                  y  -0.00001  0.00004  0.00015 -0.00082 -0.00010  0.00007
                  z   0.00001 -0.00006 -0.00022  0.00126 -0.00005  0.00006
 10   c           x  -0.00000  0.00000 -0.00036 -0.00008  0.00007 -0.00005
                  y  -0.00002  0.00002 -0.00076  0.00008  0.00010 -0.00007
                  z   0.00001  0.00000  0.00055  0.00004 -0.00007  0.00006
 11   h           x  -0.00000 -0.00025 -0.00028  0.01117  0.00019 -0.00037
                  y   0.00014  0.00011  0.00011 -0.00568 -0.00017  0.00029
                  z  -0.00002  0.00011  0.00012 -0.00486 -0.00014  0.00020
 12   h           x  -0.00005 -0.00000 -0.00184 -0.00003  0.00012 -0.00007
                  y   0.00018 -0.00003  0.00620  0.00008 -0.00036  0.00028
                  z   0.00007 -0.00002  0.00227  0.00001 -0.00017  0.00013
 13   c           x   0.00010  0.00005  0.00006 -0.00019  0.00000  0.00034
                  y   0.00021 -0.00002 -0.00002  0.00050  0.00000  0.00023
                  z  -0.00001  0.00001  0.00001 -0.00009  0.00000  0.00001
 14   c           x  -0.00004 -0.00010  0.00014  0.00023 -0.00043  0.00085
                  y   0.00008 -0.00022  0.00243  0.00027  0.00072 -0.00030
                  z  -0.00001  0.00003 -0.00029 -0.00004 -0.00016  0.00016
 15   h           x  -0.00027 -0.00003 -0.00003 -0.00038 -0.00000  0.00026
                  y  -0.00204 -0.00009 -0.00005 -0.00118 -0.00007  0.00020
                  z   0.00112  0.00005  0.00002  0.00058  0.00002 -0.00002
 16   h           x   0.00003 -0.00016  0.00062  0.00001  0.00002  0.00003
                  y  -0.00004  0.00022 -0.00101 -0.00003 -0.00008  0.00005
                  z   0.00006 -0.00030  0.00131  0.00003  0.00008 -0.00006
 17   h           x   0.00026 -0.00007 -0.00005  0.00144  0.00010 -0.00006
                  y  -0.00016  0.00004  0.00003 -0.00072 -0.00002 -0.00002
                  z  -0.00018  0.00005  0.00003 -0.00097 -0.00006  0.00005
 18   c           x   0.00023  0.00001  0.00000  0.00001 -0.00000 -0.00000
                  y   0.00062 -0.00001 -0.00001  0.00003  0.00002  0.00001
                  z  -0.00021  0.00001  0.00001  0.00002 -0.00001 -0.00001
 19   c           x  -0.00010  0.00003  0.00003 -0.00073 -0.00002  0.00007
                  y  -0.00008  0.00000 -0.00000  0.00032  0.00001 -0.00005
                  z  -0.00006 -0.00000  0.00000  0.00035  0.00001 -0.00001
 20   c           x  -0.00003  0.00002  0.00001 -0.00060 -0.00002  0.00001
                  y  -0.00001  0.00002  0.00002 -0.00033 -0.00000 -0.00000
                  z   0.00002  0.00000 -0.00000 -0.00022 -0.00001  0.00001
 21   c           x   0.00002 -0.00001  0.00028 -0.00000  0.00000  0.00000
                  y  -0.00002  0.00001 -0.00061  0.00001  0.00003 -0.00002
                  z   0.00000 -0.00001 -0.00005 -0.00002  0.00003 -0.00002
 22   c           x  -0.00044  0.00001  0.00002  0.00006 -0.00001 -0.00006
                  y   0.00067 -0.00000 -0.00001  0.00011  0.00001  0.00006
                  z   0.00037 -0.00001 -0.00001 -0.00005  0.00001  0.00001
 23   h           x  -0.00014 -0.00140 -0.00167  0.05538 -0.00003 -0.00018
                  y   0.00209  0.02499  0.02898 -0.98817  0.00019  0.00096
                  z  -0.00014 -0.00267 -0.00305  0.10558 -0.00005 -0.00010
 24   h           x  -0.00023  0.00052 -0.00213  0.00011  0.00007 -0.00029
                  y  -0.00005  0.00010 -0.00071  0.00001  0.00000 -0.00002
                  z  -0.00002 -0.00002 -0.00038 -0.00000 -0.00002  0.00003
 25   h           x   0.00014 -0.00007  0.00645  0.00030 -0.00061  0.00048
                  y   0.00022 -0.00013  0.01016  0.00024 -0.00052  0.00039
                  z  -0.00017  0.00009 -0.00751 -0.00015  0.00049 -0.00039
 26   h           x  -0.00012  0.00014  0.00111 -0.00242 -0.00026  0.00015
                  y   0.00002 -0.00002 -0.00022 -0.00005  0.00030 -0.00019
                  z  -0.00007  0.00008  0.00071 -0.00144 -0.00016  0.00011
 27   h           x   0.00003 -0.00002 -0.00002  0.00033  0.00000 -0.00001
                  y   0.00048 -0.00025 -0.00025  0.00233 -0.00008  0.00027
                  z  -0.00012  0.00003  0.00002  0.00001  0.00004 -0.00009
 28   h           x  -0.00018  0.00017 -0.00205  0.00036 -0.00064  0.00043
                  y   0.00002 -0.00001  0.00034 -0.00001 -0.00006  0.00005
                  z  -0.00002  0.00002 -0.00004  0.00012 -0.00022  0.00017
 29   h           x   0.00114 -0.00017 -0.00023  0.00210  0.00005  0.00016
                  y   0.00057 -0.00009 -0.00010  0.00063 -0.00001  0.00029
                  z   0.00060 -0.00009 -0.00013  0.00118  0.00002  0.00002
 30   h           x  -0.00219 -0.00012 -0.00012 -0.00047  0.00006  0.00027
                  y  -0.00067 -0.00002 -0.00002 -0.00011  0.00001  0.00003
                  z   0.00001 -0.00002 -0.00002 -0.00012  0.00003  0.00009
 31   c           x   0.00001 -0.00002  0.00019 -0.00001 -0.00000  0.00001
                  y   0.00002 -0.00004  0.00064  0.00002  0.00002 -0.00001
                  z   0.00000  0.00002  0.00013  0.00001  0.00000 -0.00001
 32   h           x   0.00010 -0.00019 -0.00011  0.00645  0.00013 -0.00015
                  y   0.00004 -0.00006 -0.00002  0.00219  0.00006 -0.00008
                  z   0.00009 -0.00012 -0.00007  0.00376  0.00011 -0.00014
 33   c           x  -0.00016  0.00010 -0.00010 -0.00243 -0.00077  0.00041
                  y  -0.00012 -0.00002 -0.00023 -0.00052  0.00030 -0.00079
                  z   0.00001  0.00001  0.00005 -0.00016 -0.00009  0.00010
 34   h           x   0.00757 -0.00013 -0.00020 -0.00012  0.00017  0.00035
                  y  -0.01043  0.00015  0.00025 -0.00005 -0.00014 -0.00033
                  z  -0.00502  0.00008  0.00012 -0.00003 -0.00013 -0.00021
 35   h           x  -0.00045  0.00074  0.00080  0.00020 -0.53893  0.52300
                  y   0.00074 -0.00031 -0.00017 -0.00065  0.45795 -0.44454
                  z  -0.00013  0.00012  0.00008  0.00011 -0.10894  0.10570
 36   c           x   0.00031  0.00011  0.00038 -0.00478  0.00059 -0.00036
                  y  -0.00015 -0.00212 -0.00244  0.08461 -0.00010  0.00006
                  z   0.00002  0.00022  0.00027 -0.00901  0.00007 -0.00004
 37   h           x   0.98495 -0.01054 -0.02143  0.00114 -0.00018  0.00110
                  y   0.09794 -0.00106 -0.00214  0.00018  0.00005  0.00002
                  z   0.10890 -0.00121 -0.00238  0.00019 -0.00004  0.00012
 38   n           x   0.00068 -0.00006 -0.00001  0.00037  0.00031  0.00036
                  y  -0.00028  0.00003 -0.00001 -0.00063 -0.00029  0.00043
                  z   0.00016 -0.00001 -0.00000  0.00016  0.00005  0.00000
 39   h           x  -0.00126  0.00000  0.00003  0.00003  0.00007  0.00004
                  y   0.00607  0.00002 -0.00009 -0.00006 -0.00030 -0.00025
                  z  -0.00410 -0.00003  0.00006  0.00003  0.00025  0.00020
 40   c           x   0.00057  0.00008 -0.00005 -0.00020 -0.00025 -0.00091
                  y  -0.00258 -0.00012  0.00001  0.00022  0.00028  0.00052
                  z   0.00022  0.00001 -0.00001  0.00001 -0.00005 -0.00016
 41   n           x   0.00008 -0.00001  0.00067 -0.00040  0.04108 -0.03905
                  y   0.00001  0.00007  0.00058 -0.00074 -0.03489  0.03317
                  z   0.00001 -0.00001  0.00008 -0.00002  0.00830 -0.00789
 42   h           x   0.00004 -0.00003  0.00087 -0.00013  0.00010 -0.00005
                  y   0.00005 -0.00005  0.00147 -0.00015 -0.00001  0.00002
                  z  -0.00006  0.00005 -0.00145  0.00016  0.00007 -0.00008
 43   c           x  -0.00003  0.00018  0.00057 -0.00006 -0.00028  0.00091
                  y  -0.00010 -0.00018 -0.00256  0.00006  0.00029 -0.00051
                  z   0.00001  0.00008  0.00041 -0.00002 -0.00007  0.00015
 44   h           x  -0.00000  0.00001 -0.00038 -0.00003 -0.00002  0.00003
                  y  -0.00017  0.00026 -0.00695 -0.00030 -0.00015  0.00018
                  z  -0.00006  0.00012 -0.00244 -0.00010 -0.00008  0.00011
 45   h           x  -0.00001 -0.00038  0.00001 -0.00000  0.00001  0.00003
                  y  -0.00019 -0.00238  0.00045  0.00014 -0.00008 -0.00029
                  z   0.00001  0.00038  0.00004  0.00000 -0.00002 -0.00003
 46   h           x  -0.00108  0.00004  0.00003 -0.00002 -0.00004 -0.00006
                  y  -0.00637  0.00016  0.00012 -0.00011 -0.00013 -0.00016
                  z   0.00373 -0.00009 -0.00007  0.00009  0.00010  0.00014
 47   h           x   0.00057  0.00010  0.00001  0.00002  0.00011  0.00007
                  y   0.00181  0.00022 -0.00001  0.00004 -0.00002 -0.00003
                  z   0.00136  0.00018 -0.00000  0.00003 -0.00004 -0.00006
 48   c           x  -0.00002  0.00021 -0.00054 -0.00000 -0.00001 -0.00018
                  y   0.00005  0.00012  0.00011 -0.00005 -0.00002 -0.00037
                  z  -0.00001  0.00001 -0.00006  0.00001 -0.00000  0.00002
 49   c           x   0.00026  0.00001  0.00000  0.00001  0.00001  0.00000
                  y  -0.00062 -0.00002  0.00001 -0.00000  0.00002  0.00002
                  z   0.00026 -0.00002 -0.00000 -0.00001 -0.00003 -0.00003
 50   n           x   0.00003 -0.00040  0.00069  0.00005  0.00032 -0.00036
                  y  -0.00004  0.00065 -0.00028 -0.00000 -0.00028 -0.00043
                  z   0.00001 -0.00006  0.00006  0.00001  0.00008 -0.00000
 51   c           x  -0.08432  0.00091  0.00185 -0.00008  0.00017  0.00010
                  y  -0.00834  0.00034  0.00020 -0.00030 -0.00056 -0.00037
                  z  -0.00931  0.00010  0.00021 -0.00001  0.00006  0.00004
 52   h           x   0.00002 -0.00733  0.00000 -0.00016  0.00015  0.00018
                  y   0.00002 -0.00162 -0.00001 -0.00004  0.00004  0.00006
                  z  -0.00000  0.00255 -0.00003  0.00005 -0.00008 -0.00011
 53   h           x   0.00094 -0.00001  0.00000  0.00020  0.00004 -0.00001
                  y  -0.00132  0.00002  0.00001 -0.00024 -0.00009 -0.00007
                  z  -0.00096  0.00002  0.00000 -0.00018 -0.00005 -0.00006
 54   h           x   0.00076 -0.00014 -0.00047 -0.00077 -0.52319 -0.53913
                  y  -0.00013  0.00062  0.00075  0.00036  0.44443  0.45810
                  z   0.00012 -0.00007 -0.00013 -0.00011 -0.10454 -0.10771
 55   h           x  -0.00004  0.00027 -0.00003  0.00004  0.00001 -0.00025
                  y  -0.00016  0.00133 -0.00212  0.00013 -0.00007 -0.00021
                  z  -0.00005  0.00044 -0.00069  0.00005 -0.00001 -0.00004
 56   h           x  -0.00006 -0.00959 -0.00013 -0.00027  0.00014  0.00031
                  y   0.00000  0.00440  0.00020  0.00014 -0.00013 -0.00024
                  z  -0.00004 -0.00830 -0.00012 -0.00024  0.00020  0.00034
 57   c           x   0.00005 -0.00005  0.00006 -0.00001 -0.00110  0.00098
                  y   0.00001 -0.00003 -0.00019  0.00053  0.00063 -0.00049
                  z   0.00000 -0.00000  0.00002 -0.00003 -0.00021  0.00018
 58   n           x   0.00068  0.00042  0.00006  0.00002  0.03990  0.04027
                  y   0.00055  0.00075 -0.00000 -0.00004 -0.03387 -0.03419
                  z  -0.00002 -0.00007  0.00001  0.00000  0.00797  0.00804
 59   c           x   0.00011 -0.00022 -0.00005  0.00008 -0.00040 -0.00087
                  y   0.00245 -0.00025 -0.00003  0.00017  0.00071  0.00032
                  z  -0.00014 -0.00005 -0.00001  0.00001 -0.00009 -0.00011
 60   c           x  -0.00054  0.00000  0.00000 -0.00019 -0.00002  0.00018
                  y   0.00011  0.00006  0.00005 -0.00012 -0.00003  0.00037
                  z  -0.00009 -0.00000 -0.00000 -0.00001  0.00000 -0.00001
 61   c           x  -0.00018 -0.00262 -0.00029 -0.00004 -0.00032 -0.00066
                  y   0.00007  0.00015  0.00015  0.00005  0.00023  0.00082
                  z  -0.00004 -0.00041 -0.00010 -0.00001 -0.00007 -0.00015
 62   h           x  -0.00210 -0.00040 -0.00010 -0.00016 -0.00066 -0.00048
                  y   0.00028  0.00003  0.00000  0.00001 -0.00003 -0.00003
                  z  -0.00052  0.00002 -0.00000 -0.00001  0.00007  0.00007
 63   c           x   0.00001  0.00062 -0.00010  0.00000 -0.00001 -0.00007
                  y   0.00000 -0.00022 -0.00007 -0.00002  0.00001  0.00005
                  z  -0.00000  0.00056  0.00005  0.00002 -0.00002 -0.00004
 64   c           x   0.00006  0.00020  0.00010 -0.00004  0.00001 -0.00034
                  y   0.00000 -0.00051  0.00020 -0.00000  0.00001 -0.00024
                  z   0.00001  0.00006 -0.00000 -0.00001 -0.00000 -0.00002
 65   c           x  -0.00000 -0.00005 -0.00031 -0.00001 -0.00001  0.00005
                  y   0.00002 -0.00013  0.00056  0.00000  0.00001 -0.00006
                  z  -0.00001 -0.00004 -0.00057 -0.00003 -0.00002  0.00004
 66   c           x  -0.00015  0.00241 -0.00011  0.00002 -0.00074 -0.00042
                  y  -0.00025  0.00053 -0.00010  0.00004  0.00027  0.00079
                  z  -0.00003  0.00033 -0.00002  0.00000 -0.00014 -0.00015
 67   c           x   0.00030  0.00482  0.00036  0.00013  0.00058  0.00037
                  y  -0.00089 -0.08469 -0.00137 -0.00220 -0.00009 -0.00006
                  z   0.00014  0.00842  0.00020  0.00022  0.00009  0.00006
 68   h           x   0.02123 -0.01729  0.98495  0.02846 -0.00014 -0.00112
                  y   0.00210 -0.00178  0.09760  0.00281  0.00004 -0.00001
                  z   0.00226 -0.00174  0.10457  0.00297 -0.00001 -0.00014
 69   c           x  -0.00053 -0.00017  0.00000 -0.00001 -0.00078 -0.00066
                  y  -0.00007  0.00004 -0.00004 -0.00005  0.00097  0.00092
                  z  -0.00002 -0.00002  0.00000 -0.00000 -0.00021 -0.00019
 70   h           x  -0.00065 -0.05593 -0.00092 -0.00144 -0.00005  0.00016
                  y   0.01094  0.98912  0.01641  0.02550  0.00023 -0.00094
                  z  -0.00115 -0.09818 -0.00170 -0.00253 -0.00001  0.00012
 71   c           x  -0.00025  0.00006  0.00001  0.00000  0.00005  0.00004
                  y  -0.00087 -0.00009  0.00001 -0.00001  0.00011  0.00008
                  z  -0.00047  0.00007  0.00002  0.00002  0.00006  0.00005
 72   c           x   0.00006  0.00000  0.00005  0.00005 -0.00108 -0.00101
                  y  -0.00018 -0.00053  0.00001  0.00000  0.00062  0.00051
                  z   0.00002  0.00008  0.00001  0.00001 -0.00017 -0.00015
 73   h           x   0.00010  0.00002  0.00577  0.00022  0.00014 -0.00028
                  y  -0.00017  0.00020 -0.00878 -0.00028 -0.00012  0.00028
                  z   0.00015 -0.00015  0.00826  0.00028  0.00020 -0.00034
 74   c           x  -0.00180  0.00147 -0.08434 -0.00244  0.00017 -0.00010
                  y  -0.00017  0.00044 -0.00830 -0.00047 -0.00057  0.00035
                  z  -0.00019  0.00010 -0.00898 -0.00022  0.00008 -0.00005
 75   h           x   0.00017  0.00897  0.00019  0.00023  0.00042  0.00032
                  y  -0.00000  0.00797  0.00019  0.00021  0.00066  0.00055
                  z   0.00015  0.00753  0.00017  0.00019  0.00049  0.00041
 76   h           x  -0.00015 -0.00240  0.00123  0.00010  0.00006 -0.00017
                  y  -0.00005 -0.00047  0.00047  0.00006 -0.00000 -0.00028
                  z   0.00005  0.00079 -0.00040 -0.00003 -0.00001  0.00004
 77   h           x   0.00485 -0.00017 -0.00011 -0.00004 -0.00047 -0.00040
                  y   0.01175 -0.00006 -0.00025 -0.00005 -0.00060 -0.00049
                  z   0.00688 -0.00004 -0.00014 -0.00004 -0.00049 -0.00042
 78   c           x  -0.00012 -0.00068  0.00000 -0.00001 -0.00008 -0.00006
                  y   0.00004 -0.00048 -0.00001 -0.00002 -0.00008 -0.00006
                  z   0.00002 -0.00055 -0.00002 -0.00002 -0.00007 -0.00006
 79   h           x  -0.00000 -0.00120  0.00019 -0.00000  0.00008  0.00005
                  y   0.00001  0.00052 -0.00010 -0.00001 -0.00001  0.00003
                  z  -0.00000 -0.00145  0.00024  0.00000  0.00008  0.00006
 80   h           x   0.00119  0.00251 -0.00015 -0.00004 -0.00027 -0.00018
                  y  -0.00032 -0.00012  0.00005  0.00003  0.00031  0.00022
                  z  -0.00036 -0.00074  0.00004  0.00000  0.00003  0.00004
 81   c           x  -0.00000  0.00065 -0.00002  0.00001 -0.00002 -0.00002
                  y   0.00001  0.00030 -0.00001 -0.00000  0.00000  0.00001
                  z   0.00000 -0.00013 -0.00002 -0.00001  0.00000  0.00001
 82   h           x  -0.00033 -0.00038 -0.00004 -0.00006 -0.00034 -0.00023
                  y   0.00241  0.00097  0.00005  0.00018  0.00021  0.00013
                  z  -0.00139 -0.00063 -0.00003 -0.00011 -0.00016 -0.00012
 83   c           x  -0.00003 -0.00063 -0.00001 -0.00001 -0.00003 -0.00002
                  y   0.00001  0.00018 -0.00000 -0.00000 -0.00001 -0.00000
                  z  -0.00002  0.00005  0.00001  0.00000  0.00003  0.00002
 84   h           x   0.00017  0.00623  0.00018  0.00012  0.00036  0.00029
                  y  -0.00002 -0.00085 -0.00004 -0.00002 -0.00006 -0.00003
                  z  -0.00008 -0.00220 -0.00005 -0.00004 -0.00016 -0.00013
 85   h           x   0.00009  0.00064 -0.00002 -0.00001 -0.00005 -0.00002
                  y  -0.00043 -0.00193  0.00012  0.00009  0.00063  0.00045
                  z   0.00012  0.00002 -0.00002 -0.00002 -0.00021 -0.00017
 86   h           x   0.00018  0.00131 -0.00000  0.00002  0.00003  0.00002
                  y   0.00018  0.00108 -0.00001  0.00000 -0.00009 -0.00006
                  z   0.00022  0.00144 -0.00000  0.00001  0.00007  0.00008

reduced mass(g/mol)     1.088    1.088    1.088    1.088    1.083    1.080
 

         **************************************************************
         *                                                            *
         *  zero point VIBRATIONAL energy  :      0.7443662  Hartree  *
         *    SCF-energy                   :  -1616.4673323           *
         *    SCF + E(vib0)                :  -1615.7229662           *
         *                                                            *
         **************************************************************




 time elapsed for vibrational analysis     1.57 sec


    ------------------------------------------------------------------------
         total  cpu-time :  20 days 22 hours 37 minutes and 21 seconds
         total wall-time :   5 days  5 hours 41 minutes and 39 seconds
    ------------------------------------------------------------------------


   ****  force : all done  ****


    2019-08-28 17:58:06.386 

